[Molden Format]
[Atoms] (AU)
O    1    8         1.709004464269      -0.032477147736       0.000000000000
H    2    1         1.709004464269      -1.832504132258       0.000000000000
O    3    8        -1.709004464269       0.032477147736       0.000000000000
H    4    1        -1.709004464269       1.832504132258       0.000000000000
[GTO]
  1 0
 s    8  1.00
    11720.0000000000         0.0007100000
     1759.0000000000         0.0054700000
      400.8000000000         0.0278370000
      113.7000000000         0.1048000000
       37.0300000000         0.2830620000
       13.2700000000         0.4487190000
        5.0250000000         0.2709520000
        1.0130000000         0.0154580000
 s    8  1.00
    11720.0000000000        -0.0001600000
     1759.0000000000        -0.0012630000
      400.8000000000        -0.0062670000
      113.7000000000        -0.0257160000
       37.0300000000        -0.0709240000
       13.2700000000        -0.1654110000
        5.0250000000        -0.1169550000
        1.0130000000         0.5573680000
 s    1  1.00
        0.3023000000         1.0000000000
 p    3  1.00
       17.7000000000         0.0430180000
        3.8540000000         0.2289130000
        1.0460000000         0.5087280000
 p    1  1.00
        0.2753000000         1.0000000000
 d    1  1.00
        1.1850000000         1.0000000000
 s    1  1.00
        0.0789600000         1.0000000000
 p    1  1.00
        0.0685600000         1.0000000000
 d    1  1.00
        0.3320000000         1.0000000000

  2 0
 s    3  1.00
       13.0100000000         0.0196850000
        1.9620000000         0.1379770000
        0.4446000000         0.4781480000
 s    1  1.00
        0.1220000000         1.0000000000
 p    1  1.00
        0.7270000000         1.0000000000
 s    1  1.00
        0.0297400000         1.0000000000
 p    1  1.00
        0.1410000000         1.0000000000

  3 0
 s    8  1.00
    11720.0000000000         0.0007100000
     1759.0000000000         0.0054700000
      400.8000000000         0.0278370000
      113.7000000000         0.1048000000
       37.0300000000         0.2830620000
       13.2700000000         0.4487190000
        5.0250000000         0.2709520000
        1.0130000000         0.0154580000
 s    8  1.00
    11720.0000000000        -0.0001600000
     1759.0000000000        -0.0012630000
      400.8000000000        -0.0062670000
      113.7000000000        -0.0257160000
       37.0300000000        -0.0709240000
       13.2700000000        -0.1654110000
        5.0250000000        -0.1169550000
        1.0130000000         0.5573680000
 s    1  1.00
        0.3023000000         1.0000000000
 p    3  1.00
       17.7000000000         0.0430180000
        3.8540000000         0.2289130000
        1.0460000000         0.5087280000
 p    1  1.00
        0.2753000000         1.0000000000
 d    1  1.00
        1.1850000000         1.0000000000
 s    1  1.00
        0.0789600000         1.0000000000
 p    1  1.00
        0.0685600000         1.0000000000
 d    1  1.00
        0.3320000000         1.0000000000

  4 0
 s    3  1.00
       13.0100000000         0.0196850000
        1.9620000000         0.1379770000
        0.4446000000         0.4781480000
 s    1  1.00
        0.1220000000         1.0000000000
 p    1  1.00
        0.7270000000         1.0000000000
 s    1  1.00
        0.0297400000         1.0000000000
 p    1  1.00
        0.1410000000         1.0000000000

[5D]
[9G]

[MO]
 Sym= A'
 Ene=      -2.067031314863e+01
 Spin= Alpha
 Occup=       1.000000000000e+00
  1       5.397659675994e-04
  2       2.249340371026e-04
  3       4.144138828788e-05
  4      -1.456361784457e-04
  5       2.832789247160e-05
  6       0.000000000000e+00
  7       1.096021232414e-03
  8      -3.608997624959e-04
  9       0.000000000000e+00
 10      -3.213117719415e-06
 11       0.000000000000e+00
 12       0.000000000000e+00
 13      -8.060545423859e-07
 14       5.785835912928e-06
 15       1.397697281685e-03
 16      -2.752880679746e-04
 17      -3.068828367994e-04
 18       0.000000000000e+00
 19       2.955805086240e-04
 20       0.000000000000e+00
 21       0.000000000000e+00
 22      -6.793626035614e-04
 23      -8.509395213351e-05
 24      -1.417043186109e-04
 25      -1.798764907385e-03
 26      -1.828457084339e-04
 27      -4.879506005330e-05
 28       0.000000000000e+00
 29       8.387067196430e-05
 30       9.803266243322e-05
 31      -6.459920400255e-04
 32       0.000000000000e+00
 33      -1.001997796191e+00
 34      -3.898302556273e-03
 35       8.550435311302e-03
 36      -2.374023165333e-04
 37      -1.438639440025e-03
 38       0.000000000000e+00
 39       1.216371915248e-03
 40       1.791924864148e-03
 41       0.000000000000e+00
 42      -2.527898993537e-04
 43       0.000000000000e+00
 44       0.000000000000e+00
 45      -7.755196532373e-05
 46       2.534582167407e-05
 47       2.981901320264e-03
 48      -2.472571031638e-04
 49       9.929380634987e-04
 50       0.000000000000e+00
 51      -3.222358979462e-04
 52       0.000000000000e+00
 53       0.000000000000e+00
 54       2.482910524017e-04
 55      -9.039255665573e-06
 56      -6.020608907035e-04
 57      -5.946402837537e-03
 58      -1.191697136306e-04
 59      -4.432374878584e-04
 60       0.000000000000e+00
 61      -5.819764475699e-04
 62      -8.599332221892e-05
 63       2.609380296600e-03
 64       0.000000000000e+00
 Sym= A'
 Ene=      -2.060413159610e+01
 Spin= Alpha
 Occup=       1.000000000000e+00
  1       1.001921785315e+00
  2       3.638408417542e-03
  3      -8.310006752389e-03
  4      -4.141446764088e-04
  5      -1.424198582638e-03
  6       0.000000000000e+00
  7       1.460689113177e-03
  8       1.712310785978e-03
  9       0.000000000000e+00
 10      -2.580205497292e-04
 11       0.000000000000e+00
 12       0.000000000000e+00
 13       3.461680251454e-04
 14      -3.960195878526e-05
 15      -3.264533274645e-03
 16      -5.168971844373e-05
 17       9.644628735757e-04
 18       0.000000000000e+00
 19       5.745155577779e-04
 20       0.000000000000e+00
 21       0.000000000000e+00
 22      -4.653316104352e-04
 23      -1.566452644349e-06
 24       5.485193151068e-04
 25       5.754456972570e-03
 26      -1.516257805024e-04
 27      -4.525086815217e-04
 28       0.000000000000e+00
 29       5.366584291398e-04
 30      -9.132880083791e-05
 31       2.477482962689e-03
 32       0.000000000000e+00
 33       2.850900872609e-04
 34      -2.549787208246e-04
 35       6.665720322656e-05
 36      -1.389408930716e-04
 37       2.899674520365e-05
 38       0.000000000000e+00
 39       1.274688732985e-03
 40      -3.988657124358e-04
 41       0.000000000000e+00
 42      -4.467087403539e-06
 43       0.000000000000e+00
 44       0.000000000000e+00
 45       2.205666173301e-05
 46      -3.866912974555e-06
 47      -1.157815144029e-03
 48      -1.786511046440e-04
 49      -3.390617554030e-04
 50       0.000000000000e+00
 51      -3.254624300267e-04
 52       0.000000000000e+00
 53       0.000000000000e+00
 54       7.144296077281e-04
 55       6.220726564123e-05
 56       1.398247041992e-04
 57       1.946999437771e-03
 58      -1.714098850692e-04
 59      -6.083494251534e-05
 60       0.000000000000e+00
 61      -4.040640041486e-05
 62       1.409784296559e-04
 63      -6.984897170670e-04
 64       0.000000000000e+00
 Sym= A'
 Ene=      -1.462088122259e+00
 Spin= Alpha
 Occup=       1.000000000000e+00
  1      -5.502282072654e-04
  2       2.152176578275e-01
  3       1.997342793351e-01
  4      -4.640326994169e-02
  5      -2.494286346277e-02
  6       0.000000000000e+00
  7      -1.236918930301e-02
  8       1.046922404066e-02
  9       0.000000000000e+00
 10      -5.774915949886e-03
 11       0.000000000000e+00
 12       0.000000000000e+00
 13       3.930622896395e-03
 14       6.281390197943e-04
 15       3.871482249057e-02
 16      -4.406000819192e-03
 17      -8.198891641179e-03
 18       0.000000000000e+00
 19       4.468905890401e-03
 20       0.000000000000e+00
 21       0.000000000000e+00
 22       8.612941075682e-03
 23      -6.090878747438e-03
 24       9.204429738113e-02
 25      -4.629733009528e-02
 26      -3.202681569859e-03
 27       1.810324141072e-02
 28       0.000000000000e+00
 29      -1.365376520298e-03
 30       4.418432358112e-03
 31      -1.873784354112e-02
 32       0.000000000000e+00
 33       8.712316606236e-04
 34       4.297598232858e-01
 35       4.059804741913e-01
 36       3.701468613490e-02
 37       6.058980921498e-02
 38       0.000000000000e+00
 39       2.002194449759e-02
 40      -1.402400652245e-02
 41       0.000000000000e+00
 42       7.489468966546e-03
 43       0.000000000000e+00
 44       0.000000000000e+00
 45      -4.290693174668e-03
 46       7.699713227444e-04
 47       4.404687362642e-02
 48      -9.330385099505e-04
 49       1.353750639976e-02
 50       0.000000000000e+00
 51       1.267397736275e-02
 52       0.000000000000e+00
 53       0.000000000000e+00
 54       2.051108042680e-02
 55      -5.501763469118e-03
 56       1.848889577073e-01
 57      -6.254701390659e-02
 58       1.620557477885e-03
 59      -3.767934039986e-02
 60       0.000000000000e+00
 61      -4.902395286596e-03
 62      -5.999388219233e-03
 63       2.371844485177e-02
 64       0.000000000000e+00
 Sym= A'
 Ene=      -1.342797756681e+00
 Spin= Alpha
 Occup=       1.000000000000e+00
  1      -1.980770335438e-04
  2       4.329570578750e-01
  3       4.160573392454e-01
  4      -7.593725802600e-03
  5      -7.043863076322e-02
  6       0.000000000000e+00
  7      -1.744760260676e-02
  8       1.368883467111e-02
  9       0.000000000000e+00
 10      -9.134567677997e-03
 11       0.000000000000e+00
 12       0.000000000000e+00
 13       1.841784986739e-03
 14       5.776318884458e-06
 15       3.187998557668e-02
 16       3.187622252878e-03
 17      -1.055326451273e-02
 18       0.000000000000e+00
 19       4.284864438444e-03
 20       0.000000000000e+00
 21       0.000000000000e+00
 22       2.962793685084e-02
 23      -1.914800132550e-03
 24       2.014219226964e-01
 25      -2.992217965053e-02
 26       1.237094517517e-03
 27       3.984564772666e-02
 28       0.000000000000e+00
 29      -5.618279025796e-03
 30       3.905078635589e-03
 31      -9.538675739573e-03
 32       0.000000000000e+00
 33      -1.167451439612e-03
 34      -2.383687124153e-01
 35      -2.357704331752e-01
 36       3.056469675555e-02
 37      -4.662406335718e-02
 38       0.000000000000e+00
 39      -2.412759693789e-03
 40       1.162670133634e-03
 41       0.000000000000e+00
 42      -5.506590145271e-03
 43       0.000000000000e+00
 44       0.000000000000e+00
 45       5.635111483942e-03
 46       4.962093350278e-04
 47      -7.936403496939e-03
 48       5.171815334159e-03
 49      -4.998924841615e-03
 50       0.000000000000e+00
 51      -5.168576834548e-03
 52       0.000000000000e+00
 53       0.000000000000e+00
 54      -1.613889981175e-02
 55      -2.652223837327e-03
 56      -1.116737644231e-01
 57       6.852325294883e-03
 58       3.248414452113e-03
 59       2.277254431859e-02
 60       0.000000000000e+00
 61       3.885924118569e-03
 62       1.067947515035e-03
 63      -6.601089201561e-04
 64       0.000000000000e+00
 Sym= A'
 Ene=      -7.338677031403e-01
 Spin= Alpha
 Occup=       1.000000000000e+00
  1      -6.824653033074e-05
  2       6.106079013240e-02
  3       9.947655605470e-02
  4       2.290455298037e-01
  5       9.696795558310e-02
  6       0.000000000000e+00
  7       1.333319598025e-01
  8       5.607616279826e-02
  9       0.000000000000e+00
 10       2.173546536878e-03
 11       0.000000000000e+00
 12       0.000000000000e+00
 13       1.584952849945e-03
 14      -7.116341096219e-03
 15       5.422961271103e-03
 16       9.351211008660e-03
 17       4.908306794845e-03
 18       0.000000000000e+00
 19      -1.265856198928e-03
 20       0.000000000000e+00
 21       0.000000000000e+00
 22       6.351519668593e-04
 23      -1.089731084638e-02
 24      -5.010802694883e-02
 25       1.417895590211e-02
 26       7.117199955555e-03
 27      -4.057443575422e-03
 28       0.000000000000e+00
 29       6.794623211623e-03
 30      -6.539955994733e-03
 31       7.701691042248e-03
 32       0.000000000000e+00
 33      -2.689635792919e-03
 34      -9.982945283933e-02
 35      -2.063664808145e-01
 36      -1.698505736564e-01
 37       4.819221177293e-01
 38       0.000000000000e+00
 39      -1.062859901414e-01
 40       2.349308281490e-01
 41       0.000000000000e+00
 42      -1.258550717595e-02
 43       0.000000000000e+00
 44       0.000000000000e+00
 45      -1.851052394801e-02
 46      -4.104366454802e-04
 47      -1.497460392534e-02
 48      -9.859498415873e-03
 49       3.194153559689e-02
 50       0.000000000000e+00
 51       6.638857446230e-03
 52       0.000000000000e+00
 53       0.000000000000e+00
 54       4.794779668633e-03
 55       6.665857941894e-05
 56       3.334505883056e-01
 57       3.183062490520e-02
 58      -5.057370701307e-03
 59      -4.347390197727e-02
 60       0.000000000000e+00
 61      -4.407076043415e-03
 62       1.055939532117e-03
 63       6.329983078584e-03
 64       0.000000000000e+00
 Sym= A'
 Ene=      -7.136082284370e-01
 Spin= Alpha
 Occup=       1.000000000000e+00
  1       2.891706287958e-03
  2       2.975310177409e-02
  3       6.820510781517e-02
  4      -3.694492540492e-01
  5       2.615343473519e-01
  6       0.000000000000e+00
  7      -2.134923480618e-01
  8       1.210540531860e-01
  9       0.000000000000e+00
 10       3.022898230857e-03
 11       0.000000000000e+00
 12       0.000000000000e+00
 13       1.402485611813e-02
 14       3.537044265432e-03
 15       3.276164662972e-03
 16      -1.837167946897e-02
 17       2.095207118391e-02
 18       0.000000000000e+00
 19      -4.532700817078e-03
 20       0.000000000000e+00
 21       0.000000000000e+00
 22      -7.907099796409e-03
 23       7.529126543688e-03
 24      -2.014724094976e-01
 25      -3.646525050335e-02
 26      -9.660236484753e-03
 27      -2.586061086447e-02
 28       0.000000000000e+00
 29       8.846473359982e-04
 30       6.418086309669e-03
 31      -2.126718633921e-03
 32       0.000000000000e+00
 33      -2.469338746775e-03
 34      -8.495479020022e-02
 35      -1.350861898806e-01
 36       3.836630120852e-01
 37       1.562209755469e-01
 38       0.000000000000e+00
 39       2.441797595131e-01
 40       8.622921877517e-02
 41       0.000000000000e+00
 42      -7.168686034621e-03
 43       0.000000000000e+00
 44       0.000000000000e+00
 45      -2.243948218340e-03
 46       8.533839370027e-03
 47      -1.616023885593e-02
 48       2.341969339099e-02
 49       9.448989387699e-04
 50       0.000000000000e+00
 51      -6.548648297021e-03
 52       0.000000000000e+00
 53       0.000000000000e+00
 54       9.289303811939e-03
 55       1.750929492163e-02
 56       8.442721378421e-02
 57      -2.906633511955e-04
 58       1.014318328828e-02
 59      -8.034946373659e-03
 60       0.000000000000e+00
 61      -2.272784148050e-03
 62      -9.147287782076e-03
 63       6.729820801110e-03
 64       0.000000000000e+00
 Sym= A"
 Ene=      -6.904512305749e-01
 Spin= Alpha
 Occup=       1.000000000000e+00
  1       0.000000000000e+00
  2       0.000000000000e+00
  3       0.000000000000e+00
  4       0.000000000000e+00
  5       0.000000000000e+00
  6       1.219625240321e-01
  7       0.000000000000e+00
  8       0.000000000000e+00
  9       7.196359658856e-02
 10       0.000000000000e+00
 11      -4.245864392411e-03
 12      -1.962076273102e-03
 13       0.000000000000e+00
 14       0.000000000000e+00
 15       0.000000000000e+00
 16       0.000000000000e+00
 17       0.000000000000e+00
 18       6.765158446813e-03
 19       0.000000000000e+00
 20       3.589412941416e-03
 21      -2.532944248050e-03
 22       0.000000000000e+00
 23       0.000000000000e+00
 24       0.000000000000e+00
 25       0.000000000000e+00
 26       0.000000000000e+00
 27       0.000000000000e+00
 28       5.788331299024e-03
 29       0.000000000000e+00
 30       0.000000000000e+00
 31       0.000000000000e+00
 32      -1.018563172772e-03
 33       0.000000000000e+00
 34       0.000000000000e+00
 35       0.000000000000e+00
 36       0.000000000000e+00
 37       0.000000000000e+00
 38       6.702057057227e-01
 39       0.000000000000e+00
 40       0.000000000000e+00
 41       4.262719400949e-01
 42       0.000000000000e+00
 43       2.372918558319e-03
 44       1.217910478955e-02
 45       0.000000000000e+00
 46       0.000000000000e+00
 47       0.000000000000e+00
 48       0.000000000000e+00
 49       0.000000000000e+00
 50       2.863552371507e-02
 51       0.000000000000e+00
 52       5.898326942791e-03
 53       1.722743442830e-02
 54       0.000000000000e+00
 55       0.000000000000e+00
 56       0.000000000000e+00
 57       0.000000000000e+00
 58       0.000000000000e+00
 59       0.000000000000e+00
 60       1.879511681887e-02
 61       0.000000000000e+00
 62       0.000000000000e+00
 63       0.000000000000e+00
 64      -4.265047490707e-03
 Sym= A'
 Ene=      -6.365391592367e-01
 Spin= Alpha
 Occup=       1.000000000000e+00
  1       1.458853072375e-03
  2       1.247916994319e-01
  3       2.502022977464e-01
  4       1.921026208085e-01
  5       4.662084807770e-01
  6       0.000000000000e+00
  7       1.202463124937e-01
  8       2.360772496916e-01
  9       0.000000000000e+00
 10       8.271073549232e-03
 11       0.000000000000e+00
 12       0.000000000000e+00
 13       1.885058659725e-02
 14      -5.838456058134e-03
 15       4.957092008617e-02
 16       1.299632414249e-02
 17       2.790504734555e-02
 18       0.000000000000e+00
 19      -7.400713217836e-03
 20       0.000000000000e+00
 21       0.000000000000e+00
 22      -6.718798887942e-03
 23      -5.326115125682e-03
 24      -3.252333464560e-01
 25      -4.163743793390e-02
 26       4.934284420551e-03
 27      -3.834108615212e-02
 28       0.000000000000e+00
 29       6.893955652358e-04
 30      -9.622155757042e-03
 31       1.602741560894e-02
 32       0.000000000000e+00
 33       1.624396846739e-03
 34       5.949322452207e-02
 35       1.175947767132e-01
 36      -1.488637872450e-01
 37      -2.311192647238e-01
 38       0.000000000000e+00
 39      -9.753183141252e-02
 40      -1.122343439485e-01
 41       0.000000000000e+00
 42       7.120809266379e-03
 43       0.000000000000e+00
 44       0.000000000000e+00
 45       8.049841669902e-03
 46      -1.813701383155e-03
 47       8.699274003157e-03
 48      -1.952437561374e-02
 49      -1.077651732861e-02
 50       0.000000000000e+00
 51       8.348707392066e-04
 52       0.000000000000e+00
 53       0.000000000000e+00
 54      -6.382192926691e-03
 55       3.325776764446e-03
 56      -1.583714715766e-01
 57      -1.334520702801e-02
 58      -3.781260157953e-03
 59       1.973587550601e-02
 60       0.000000000000e+00
 61      -4.435337608767e-03
 62       7.890828672630e-03
 63      -1.005748949299e-02
 64       0.000000000000e+00
 Sym= A"
 Ene=      -5.251493156300e-01
 Spin= Alpha
 Occup=       1.000000000000e+00
  1       0.000000000000e+00
  2       0.000000000000e+00
  3       0.000000000000e+00
  4       0.000000000000e+00
  5       0.000000000000e+00
  6       6.450678757427e-01
  7       0.000000000000e+00
  8       0.000000000000e+00
  9       4.457105031784e-01
 10       0.000000000000e+00
 11      -2.951108642154e-03
 12      -1.196189663930e-02
 13       0.000000000000e+00
 14       0.000000000000e+00
 15       0.000000000000e+00
 16       0.000000000000e+00
 17       0.000000000000e+00
 18       6.542487005335e-02
 19       0.000000000000e+00
 20      -4.885522024000e-03
 21      -1.276315625894e-02
 22       0.000000000000e+00
 23       0.000000000000e+00
 24       0.000000000000e+00
 25       0.000000000000e+00
 26       0.000000000000e+00
 27       0.000000000000e+00
 28       2.463145663991e-02
 29       0.000000000000e+00
 30       0.000000000000e+00
 31       0.000000000000e+00
 32       1.040905260407e-02
 33       0.000000000000e+00
 34       0.000000000000e+00
 35       0.000000000000e+00
 36       0.000000000000e+00
 37       0.000000000000e+00
 38      -1.707581757547e-01
 39       0.000000000000e+00
 40       0.000000000000e+00
 41      -1.145970354195e-01
 42       0.000000000000e+00
 43       2.566358370845e-03
 44      -3.274504962213e-03
 45       0.000000000000e+00
 46       0.000000000000e+00
 47       0.000000000000e+00
 48       0.000000000000e+00
 49       0.000000000000e+00
 50      -1.861150591074e-02
 51       0.000000000000e+00
 52       5.308533734179e-03
 53      -4.280814026354e-03
 54       0.000000000000e+00
 55       0.000000000000e+00
 56       0.000000000000e+00
 57       0.000000000000e+00
 58       0.000000000000e+00
 59       0.000000000000e+00
 60      -4.684864091372e-03
 61       0.000000000000e+00
 62       0.000000000000e+00
 63       0.000000000000e+00
 64       1.936281256221e-03
 Sym= A'
 Ene=      -4.853127232598e-01
 Spin= Alpha
 Occup=       1.000000000000e+00
  1       5.036168064061e-03
  2       7.536969043444e-02
  3       1.194038286796e-01
  4      -5.164797697045e-01
  5       3.241213557771e-02
  6       0.000000000000e+00
  7      -3.929688336691e-01
  8       3.687916782624e-02
  9       0.000000000000e+00
 10       2.274230650489e-03
 11       0.000000000000e+00
 12       0.000000000000e+00
 13      -3.196133878451e-03
 14       9.507437863121e-03
 15       5.601526040182e-02
 16      -7.235885373620e-02
 17       1.626458658020e-02
 18       0.000000000000e+00
 19      -3.244936167073e-03
 20       0.000000000000e+00
 21       0.000000000000e+00
 22       1.189729479808e-02
 23       8.902897253027e-03
 24      -6.586139944512e-04
 25       2.551788181531e-02
 26      -1.425551728464e-02
 27       3.255146264389e-03
 28       0.000000000000e+00
 29       1.318085452389e-02
 30      -4.571123003576e-03
 31       1.275759685894e-02
 32       0.000000000000e+00
 33      -5.828758112672e-03
 34      -7.182693029967e-02
 35      -1.085653520806e-01
 36      -5.330834098695e-01
 37       2.145758566059e-02
 38       0.000000000000e+00
 39      -4.060445826024e-01
 40       3.138452324102e-02
 41       0.000000000000e+00
 42      -5.395164407654e-03
 43       0.000000000000e+00
 44       0.000000000000e+00
 45       5.598224515436e-03
 46      -1.032060969719e-02
 47      -4.877009631796e-02
 48      -7.803883694135e-02
 49       1.233368099668e-02
 50       0.000000000000e+00
 51       2.757234920621e-03
 52       0.000000000000e+00
 53       0.000000000000e+00
 54      -1.280361422152e-02
 55      -8.708607883784e-03
 56      -5.670556793068e-03
 57      -2.500568218845e-02
 58      -1.689650442710e-02
 59       4.258605916571e-03
 60       0.000000000000e+00
 61      -1.351464159338e-02
 62      -9.673672507916e-03
 63       1.353408600692e-02
 64       0.000000000000e+00
 Sym= A'
 Ene=       3.880663869508e-02
 Spin= Alpha
 Occup=       0.000000000000e+00
  1       3.284687569075e-04
  2       3.832983305221e-02
  3       1.174488783700e-01
  4       5.500493320172e-03
  5      -2.108909071055e-02
  6       0.000000000000e+00
  7      -8.400481746865e-03
  8      -7.251760955069e-02
  9       0.000000000000e+00
 10      -7.182017420904e-04
 11       0.000000000000e+00
 12       0.000000000000e+00
 13       6.531505016717e-04
 14       1.101259255245e-03
 15       8.506208791884e-01
 16      -4.835983373961e-02
 17      -7.114415893052e-02
 18       0.000000000000e+00
 19      -7.845988373208e-03
 20       0.000000000000e+00
 21       0.000000000000e+00
 22       1.580054373247e-03
 23      -9.690415009713e-03
 24      -2.205390581895e-02
 25      -4.198100338225e-01
 26      -1.510222536645e-03
 27       2.705005572762e-03
 28       0.000000000000e+00
 29      -4.779758162794e-01
 30       2.963868190462e-02
 31      -1.430112510204e-01
 32       0.000000000000e+00
 33      -7.342925213001e-04
 34       4.579979833491e-02
 35       1.774052532420e-01
 36      -3.013353533624e-02
 37       5.064004458982e-02
 38       0.000000000000e+00
 39      -2.104793338792e-02
 40       1.203598361678e-01
 41       0.000000000000e+00
 42       7.264209454879e-04
 43       0.000000000000e+00
 44       0.000000000000e+00
 45       1.686063111756e-04
 46       6.415919233575e-04
 47       1.104453587827e+00
 48      -6.137059525729e-02
 49       2.681475486768e-01
 50       0.000000000000e+00
 51      -8.268579864553e-03
 52       0.000000000000e+00
 53       0.000000000000e+00
 54      -7.586626924832e-03
 55      -7.875098788942e-03
 56      -3.171005673986e-02
 57      -6.868662333040e-01
 58       2.055825306904e-03
 59      -4.149112576373e-03
 60       0.000000000000e+00
 61      -1.401719347877e+00
 62      -3.026523741651e-02
 63       1.915966262727e-01
 64       0.000000000000e+00
 Sym= A'
 Ene=       5.418801336987e-02
 Spin= Alpha
 Occup=       0.000000000000e+00
  1       3.829984209352e-03
  2      -1.505568214276e-02
  3      -1.372581766649e-01
  4      -3.689404747727e-02
  5       5.454595326598e-02
  6       0.000000000000e+00
  7      -3.638891416997e-02
  8       1.210468191617e-01
  9       0.000000000000e+00
 10       2.219658938035e-03
 11       0.000000000000e+00
 12       0.000000000000e+00
 13      -9.730132182370e-04
 14      -1.684622465773e-04
 15      -9.574234205413e-01
 16      -2.629651368636e-01
 17       4.914584756385e-01
 18       0.000000000000e+00
 19      -8.133176894470e-04
 20       0.000000000000e+00
 21       0.000000000000e+00
 22       2.410957618675e-02
 23       1.378008433804e-04
 24       1.413267562608e-02
 25       7.275365488443e-01
 26       1.324305255373e-03
 27      -9.581189151170e-04
 28       0.000000000000e+00
 29       2.184692108208e+00
 30       2.411693413767e-03
 31       1.874381639884e-01
 32       0.000000000000e+00
 33      -2.609049334146e-03
 34      -2.076032479620e-03
 35       5.702444343608e-02
 36      -2.984856740121e-02
 37       4.121837135792e-02
 38       0.000000000000e+00
 39      -3.617617416232e-02
 40       7.239548738697e-02
 41       0.000000000000e+00
 42      -1.496805421857e-03
 43       0.000000000000e+00
 44       0.000000000000e+00
 45       3.174275288222e-04
 46      -2.633821636922e-04
 47       3.758119287154e-01
 48      -2.442482541726e-01
 49       3.283006600065e-01
 50       0.000000000000e+00
 51       5.051376720981e-03
 52       0.000000000000e+00
 53       0.000000000000e+00
 54      -2.047327094861e-02
 55       4.328347987454e-03
 56      -4.383891500621e-03
 57      -3.900403715290e-01
 58       9.168536880825e-04
 59      -7.071789383429e-04
 60       0.000000000000e+00
 61      -1.677724236049e+00
 62       1.286049433754e-02
 63       8.035613533320e-02
 64       0.000000000000e+00
 Sym= A'
 Ene=       1.515036986645e-01
 Spin= Alpha
 Occup=       0.000000000000e+00
  1       2.922196723277e-03
  2      -2.092728946432e-02
  3      -1.333626688901e-01
  4      -6.767199133861e-02
  5      -5.992177241270e-02
  6       0.000000000000e+00
  7      -6.656897493455e-02
  8       7.451931349712e-02
  9       0.000000000000e+00
 10      -4.365419558360e-03
 11       0.000000000000e+00
 12       0.000000000000e+00
 13       1.434879813540e-03
 14       5.255222022167e-03
 15      -4.125605370381e+00
 16       1.870102152998e+00
 17       8.121746647414e-01
 18       0.000000000000e+00
 19       3.464991933406e-02
 20       0.000000000000e+00
 21       0.000000000000e+00
 22       4.239224851562e-03
 23      -1.623141617841e-02
 24       2.564844190066e-02
 25       1.487576428625e+00
 26       2.004474428180e-03
 27       2.489127145523e-02
 28       0.000000000000e+00
 29       1.857200321465e-01
 30      -7.041401876197e-02
 31       2.217185747827e-01
 32       0.000000000000e+00
 33      -4.256367033508e-03
 34       1.694366474343e-02
 35       1.536718763739e-01
 36      -7.340775893400e-02
 37      -7.668724634722e-02
 38       0.000000000000e+00
 39      -8.191492411126e-02
 40       6.219895257507e-02
 41       0.000000000000e+00
 42       6.820722428322e-03
 43       0.000000000000e+00
 44       0.000000000000e+00
 45      -2.583790012145e-03
 46      -6.385450702757e-03
 47       4.198929570388e+00
 48       1.971807297688e+00
 49       1.010307860749e+00
 50       0.000000000000e+00
 51      -3.918615106989e-02
 52       0.000000000000e+00
 53       0.000000000000e+00
 54      -4.450899765549e-03
 55       1.944160613179e-02
 56      -2.006541911886e-02
 57      -1.612655950716e+00
 58       1.529582029924e-03
 59       2.795300202591e-02
 60       0.000000000000e+00
 61      -1.841806620000e-01
 62      -8.672498771568e-02
 63       2.641570402190e-01
 64       0.000000000000e+00
 Sym= A"
 Ene=       1.840436502274e-01
 Spin= Alpha
 Occup=       0.000000000000e+00
  1       0.000000000000e+00
  2       0.000000000000e+00
  3       0.000000000000e+00
  4       0.000000000000e+00
  5       0.000000000000e+00
  6       1.078682056533e-01
  7       0.000000000000e+00
  8       0.000000000000e+00
  9       1.756131452071e-01
 10       0.000000000000e+00
 11       1.635605280871e-03
 12      -7.895895334700e-03
 13       0.000000000000e+00
 14       0.000000000000e+00
 15       0.000000000000e+00
 16       0.000000000000e+00
 17       0.000000000000e+00
 18      -4.131498448121e-01
 19       0.000000000000e+00
 20      -1.148017835157e-02
 21       2.673305184260e-02
 22       0.000000000000e+00
 23       0.000000000000e+00
 24       0.000000000000e+00
 25       0.000000000000e+00
 26       0.000000000000e+00
 27       0.000000000000e+00
 28      -7.881627007248e-03
 29       0.000000000000e+00
 30       0.000000000000e+00
 31       0.000000000000e+00
 32       1.871828367690e-01
 33       0.000000000000e+00
 34       0.000000000000e+00
 35       0.000000000000e+00
 36       0.000000000000e+00
 37       0.000000000000e+00
 38       1.406257745536e-01
 39       0.000000000000e+00
 40       0.000000000000e+00
 41       2.347488350987e-01