
    -----------------------------------------------------------------------
          Psi4: An Open-Source Ab Initio Electronic Structure Package
                               Psi4 1.4a2.dev845 

                         Git: Rev {sgoodlett} c139f7d dirty


    D. G. A. Smith, L. A. Burns, A. C. Simmonett, R. M. Parrish,
    M. C. Schieber, R. Galvelis, P. Kraus, H. Kruse, R. Di Remigio,
    A. Alenaizan, A. M. James, S. Lehtola, J. P. Misiewicz, M. Scheurer,
    R. A. Shaw, J. B. Schriber, Y. Xie, Z. L. Glick, D. A. Sirianni,
    J. S. O'Brien, J. M. Waldrop, A. Kumar, E. G. Hohenstein,
    B. P. Pritchard, B. R. Brooks, H. F. Schaefer III, A. Yu. Sokolov,
    K. Patkowski, A. E. DePrince III, U. Bozkaya, R. A. King,
    F. A. Evangelista, J. M. Turney, T. D. Crawford, C. D. Sherrill,
    J. Chem. Phys. 152(18) 184108 (2020). https://doi.org/10.1063/5.0006002

                            Additional Code Authors
    E. T. Seidl, C. L. Janssen, E. F. Valeev, M. L. Leininger,
    J. F. Gonthier, R. M. Richard, H. R. McAlexander, M. Saitow, X. Wang,
    P. Verma, and M. H. Lechner

             Previous Authors, Complete List of Code Contributors,
                       and Citations for Specific Modules
    https://github.com/psi4/psi4/blob/master/codemeta.json
    https://github.com/psi4/psi4/graphs/contributors
    http://psicode.org/psi4manual/master/introduction.html#citing-psifour

    -----------------------------------------------------------------------


    Psi4 started on: Friday, 08 January 2021 11:09AM

    Process ID: 24733
    Host:       smg13363-ws
    PSIDATADIR: /home/smg13363/psi4/objdir/stage/share/psi4
    Memory:     500.0 MiB
    Threads:    1
    
  ==> Input File <==

--------------------------------------------------------------------------
memory 24 GB
molecule {
symmetry cs
0 3
O
H 1 R1
O 1 R3 2 A1
H 3 R2 1 A2 2 D1
A1        =   91.0886920327
A2        =   91.0886920327
D1        = -180.0000000000
R1        =    0.9525332588
R2        =    0.9525332588
R3        =    1.8090589995
}
set {
basis aug-cc-pvdz
e_convergence 10
reference uhf
scf_type pk
stability_analysis follow
    DOCC [     7,    1]
    SOCC [     1,    1]
}

wfn = energy("scf", return_wfn=True)[1]
wfn.write_molden('cs.molden')

--------------------------------------------------------------------------

  Memory set to  22.352 GiB by Python driver.

Scratch directory: /tmp/

*** tstart() called on smg13363-ws
*** at Fri Jan  8 11:09:19 2021

   => Loading Basis Set <=

    Name: AUG-CC-PVDZ
    Role: ORBITAL
    Keyword: BASIS
    atoms 1, 3 entry O          line   254 file /home/smg13363/psi4/objdir/stage/share/psi4/basis/aug-cc-pvdz.gbs 
    atoms 2, 4 entry H          line    40 file /home/smg13363/psi4/objdir/stage/share/psi4/basis/aug-cc-pvdz.gbs 


         ---------------------------------------------------------
                                   SCF
               by Justin Turney, Rob Parrish, Andy Simmonett
                          and Daniel G. A. Smith
                              UHF Reference
                        1 Threads,  22888 MiB Core
         ---------------------------------------------------------

  ==> Geometry <==

    Molecular point group: cs
    Full point group: C2h

    Geometry (in Angstrom), charge = 0, multiplicity = 3:

       Center              X                  Y                   Z               Mass       
    ------------   -----------------  -----------------  -----------------  -----------------
         O            0.904366215424    -0.017186166449     0.000000000000    15.994914619570
         H            0.904366215424    -0.969719425249     0.000000000000     1.007825032230
         O           -0.904366215424     0.017186166449     0.000000000000    15.994914619570
         H           -0.904366215424     0.969719425249     0.000000000000     1.007825032230

  Running in cs symmetry.

  Rotational constants: A =      9.86770  B =      0.60187  C =      0.56727 [cm^-1]
  Rotational constants: A = 295826.12109  B =  18043.54488  C =  17006.26875 [MHz]
  Nuclear repulsion =   31.918464717377521

  Charge       = 0
  Multiplicity = 3
  Electrons    = 18
  Nalpha       = 10
  Nbeta        = 8

  ==> Algorithm <==

  SCF Algorithm Type is PK.
  DIIS enabled.
  MOM disabled.
  Fractional occupation disabled.
  Guess Type is SAD.
  Energy threshold   = 1.00e-10
  Density threshold  = 1.00e-06
  Integral threshold = 0.00e+00

  ==> Primary Basis <==

  Basis Set: AUG-CC-PVDZ
    Blend: AUG-CC-PVDZ
    Number of shells: 28
    Number of basis function: 64
    Number of Cartesian functions: 68
    Spherical Harmonics?: true
    Max angular momentum: 2

  ==> Integral Setup <==

  Using in-core PK algorithm.
   Calculation information:
      Number of atoms:                   4
      Number of AO shells:              28
      Number of primitives:             64
      Number of atomic orbitals:        68
      Number of basis functions:        64

      Integral cutoff                 1.00e-12
      Number of threads:                 1

  Performing in-core PK
  Using 4328480 doubles for integral storage.
  We computed 82621 shell quartets total.
  Whereas there are 82621 unique shell quartets.

  ==> DiskJK: Disk-Based J/K Matrices <==

    J tasked:                  Yes
    K tasked:                  Yes
    wK tasked:                  No
    Memory [MiB]:            17166
    Schwarz Cutoff:          1E-12

    OpenMP threads:              1

  Minimum eigenvalue in the overlap matrix is 1.6938505269E-03.
  Reciprocal condition number of the overlap matrix is 2.7115467153E-04.
    Using symmetric orthogonalization.

  ==> Pre-Iterations <==

  SCF Guess: Superposition of Atomic Densities via on-the-fly atomic UHF (no occupation information).

   -------------------------
    Irrep   Nso     Nmo    
   -------------------------
     A'        46      46 
     A"        18      18 
   -------------------------
    Total      64      64
   -------------------------

  ==> Iterations <==

                        Total Energy        Delta E     RMS |[F,P]|

   @UHF iter SAD:  -149.56056996189335   -1.49561e+02   0.00000e+00 
   @UHF iter   1:  -150.65302769293584   -1.09246e+00   6.71028e-03 DIIS
   @UHF iter   2:  -150.71113791977041   -5.81102e-02   3.10259e-03 DIIS
   @UHF iter   3:  -150.72186648616892   -1.07286e-02   1.07960e-03 DIIS
   @UHF iter   4:  -150.72527091397174   -3.40443e-03   3.74460e-04 DIIS
   @UHF iter   5:  -150.72576626804803   -4.95354e-04   1.29473e-04 DIIS
   @UHF iter   6:  -150.72583539129496   -6.91232e-05   4.63111e-05 DIIS
   @UHF iter   7:  -150.72584516604852   -9.77475e-06   1.61275e-05 DIIS
   @UHF iter   8:  -150.72584636263755   -1.19659e-06   4.18418e-06 DIIS
   @UHF iter   9:  -150.72584643186894   -6.92314e-08   8.49827e-07 DIIS
   @UHF iter  10:  -150.72584643403647   -2.16752e-09   1.97965e-07 DIIS
   @UHF iter  11:  -150.72584643416755   -1.31081e-10   4.77395e-08 DIIS
   @UHF iter  12:  -150.72584643417679   -9.23706e-12   1.68801e-08 DIIS
  Energy and wave function converged.


         ------------------------------------------------------------
                              UHF Stability code                     
                                Jérôme Gonthier                     
                   Strong inspiration from R. Parrish's CIS          
         ------------------------------------------------------------

  ==> Geometry <==

    Molecular point group: cs
    Full point group: C2h

    Geometry (in Angstrom), charge = 0, multiplicity = 3:

       Center              X                  Y                   Z               Mass       
    ------------   -----------------  -----------------  -----------------  -----------------
         O            0.904366215424    -0.017186166449     0.000000000000    15.994914619570
         H            0.904366215424    -0.969719425249     0.000000000000     1.007825032230
         O           -0.904366215424     0.017186166449     0.000000000000    15.994914619570
         H           -0.904366215424     0.969719425249     0.000000000000     1.007825032230

  Nuclear repulsion =   31.918464717377521
  ==> Basis Set <==

  Basis Set: AUG-CC-PVDZ
    Blend: AUG-CC-PVDZ
    Number of shells: 28
    Number of basis function: 64
    Number of Cartesian functions: 68
    Spherical Harmonics?: true
    Max angular momentum: 2

  Using in-core PK algorithm.
   Calculation information:
      Number of atoms:                   4
      Number of AO shells:              28
      Number of primitives:             64
      Number of atomic orbitals:        68
      Number of basis functions:        64

      Integral cutoff                 1.00e-12
      Number of threads:                 1

  Performing in-core PK
  Using 4328480 doubles for integral storage.
  We computed 82621 shell quartets total.
  Whereas there are 82621 unique shell quartets.

  ==> DLUSolver (by Jerome Gonthier) <== 
 ==> (Basically a copy-paste from R.Parrish DLR Solver) <== 

   Number of roots         =           1
   Number of guess vectors =           3
   Maximum subspace size   =          12
   Minimum subspace size   =           2
   Subspace expansion norm =       1E-06
   Convergence cutoff      =       1E-06
   Maximum iterations      =         100
   Preconditioning         =      JACOBI

  ==> USTABHamiltonian (by Jérôme Gonthier) <== 
  ==> Inspired by R.Parrish CISRHamiltonian <== 

  ==> DiskJK: Disk-Based J/K Matrices <==

    J tasked:                  Yes
    K tasked:                  Yes
    wK tasked:                  No
    Memory [MiB]:            17166
    Schwarz Cutoff:          1E-12

    OpenMP threads:              1

  => Iterations <=

             Iter  Converged   Subspace    Residual
  DLU           1          0          1   9.870E-01
  DLU           2          0          2   8.584E-01
  DLU           3          0          3   3.519E-01
  DLU           4          0          4   1.507E-01
  DLU           5          0          5   4.845E-02
  DLU           6          0          6   1.101E-02
  DLU           7          0          7   3.459E-03
  DLU           8          0          8   1.030E-03
  DLU           9          0          9   2.675E-04
  DLU          10          0         10   4.188E-05
  DLU          11          0         11   1.109E-05
  DLU          12          0         12   2.990E-06
  DLU          13          1         13   8.181E-07

    DLUSolver converged.

    Negative totally symmetric eigenvalue detected: -0.141625 
    Wavefunction unstable!
    Lowest UHF->UHF stability eigenvalues: 
      Ap -0.141625      App -0.129394     

    Rotating orbitals by 0.500000 * pi / 2 radians along unstable eigenvector.
    Running SCF again with the rotated orbitals.
   @UHF iter  13:  -150.75385977270477   -1.50754e+02   2.30909e-03 DIIS
   @UHF iter  14:  -150.76321266686375   -9.35289e-03   9.69788e-04 DIIS
   @UHF iter  15:  -150.76464413226694   -1.43147e-03   4.46370e-04 DIIS
   @UHF iter  16:  -150.76511822413320   -4.74092e-04   1.71050e-04 DIIS
   @UHF iter  17:  -150.76524765310015   -1.29429e-04   7.99616e-05 DIIS
   @UHF iter  18:  -150.76528150472464   -3.38516e-05   3.81448e-05 DIIS
   @UHF iter  19:  -150.76529193900734   -1.04343e-05   1.42517e-05 DIIS
   @UHF iter  20:  -150.76529338449274   -1.44549e-06   5.58106e-06 DIIS
   @UHF iter  21:  -150.76529357009917   -1.85606e-07   2.19050e-06 DIIS
   @UHF iter  22:  -150.76529360163033   -3.15312e-08   7.31541e-07 DIIS
   @UHF iter  23:  -150.76529360481842   -3.18809e-09   2.38284e-07 DIIS
   @UHF iter  24:  -150.76529360510710   -2.88679e-10   8.89746e-08 DIIS
   @UHF iter  25:  -150.76529360514866   -4.15525e-11   2.80428e-08 DIIS

         ------------------------------------------------------------
                              UHF Stability code                     
                                Jérôme Gonthier                     
                   Strong inspiration from R. Parrish's CIS          
         ------------------------------------------------------------

  ==> Geometry <==

    Molecular point group: cs
    Full point group: C2h

    Geometry (in Angstrom), charge = 0, multiplicity = 3:

       Center              X                  Y                   Z               Mass       
    ------------   -----------------  -----------------  -----------------  -----------------
         O            0.904366215424    -0.017186166449     0.000000000000    15.994914619570
         H            0.904366215424    -0.969719425249     0.000000000000     1.007825032230
         O           -0.904366215424     0.017186166449     0.000000000000    15.994914619570
         H           -0.904366215424     0.969719425249     0.000000000000     1.007825032230

  Nuclear repulsion =   31.918464717377521
  ==> Basis Set <==

  Basis Set: AUG-CC-PVDZ
    Blend: AUG-CC-PVDZ
    Number of shells: 28
    Number of basis function: 64
    Number of Cartesian functions: 68
    Spherical Harmonics?: true
    Max angular momentum: 2

  Using in-core PK algorithm.
   Calculation information:
      Number of atoms:                   4
      Number of AO shells:              28
      Number of primitives:             64
      Number of atomic orbitals:        68
      Number of basis functions:        64

      Integral cutoff                 1.00e-12
      Number of threads:                 1

  Performing in-core PK
  Using 4328480 doubles for integral storage.
  We computed 82621 shell quartets total.
  Whereas there are 82621 unique shell quartets.

  ==> DLUSolver (by Jerome Gonthier) <== 
 ==> (Basically a copy-paste from R.Parrish DLR Solver) <== 

   Number of roots         =           1
   Number of guess vectors =           3
   Maximum subspace size   =          12
   Minimum subspace size   =           2
   Subspace expansion norm =       1E-06
   Convergence cutoff      =       1E-06
   Maximum iterations      =         100
   Preconditioning         =      JACOBI

  ==> USTABHamiltonian (by Jérôme Gonthier) <== 
  ==> Inspired by R.Parrish CISRHamiltonian <== 

  ==> DiskJK: Disk-Based J/K Matrices <==

    J tasked:                  Yes
    K tasked:                  Yes
    wK tasked:                  No
    Memory [MiB]:            17166
    Schwarz Cutoff:          1E-12

    OpenMP threads:              1

  => Iterations <=

             Iter  Converged   Subspace    Residual
  DLU           1          0          1   4.538E-01
  DLU           2          0          2   4.382E-01
  DLU           3          0          3   5.892E-01
  DLU           4          0          4   4.490E-01
  DLU           5          0          5   4.658E-01
  DLU           6          0          6   4.038E-01
  DLU           7          0          7   2.113E-01
  DLU           8          0          8   1.529E-01
  DLU           9          0          9   1.174E-01
  DLU          10          0         10   5.586E-02
  DLU          11          0         11   2.222E-02
  DLU          12          0         12   1.272E-02
  DLU          13          0         13   8.431E-03
  DLU          14          0          3   3.617E-03
  DLU          15          0          4   1.666E-03
  DLU          16          0          5   1.531E-03
  DLU          17          0          6   7.036E-04
  DLU          18          0          7   2.262E-04
  DLU          19          0          8   1.256E-04
  DLU          20          0          9   9.237E-05
  DLU          21          0         10   3.490E-05
  DLU          22          0         11   2.273E-05
  DLU          23          0         12   1.011E-05
  DLU          24          0         13   4.945E-06
  DLU          25          0          3   2.058E-06
  DLU          26          0          4   1.255E-06
  DLU          27          1          5   8.744E-07

    DLUSolver converged.

    Wavefunction stable under totally symmetric rotations.
    Lowest totally symmetric eigenvalue: 0.008892 
    Lowest UHF->UHF stability eigenvalues: 
     App 0.008892        Ap 0.203667      

    Stability analysis over.

  ==> Post-Iterations <==

   @Spin Contamination Metric:   2.310086667E-02
   @S^2 Expected:                2.000000000E+00
   @S^2 Observed:                2.023100867E+00
   @S   Expected:                1.000000000E+00
   @S   Observed:                1.000000000E+00

    Orbital Energies [Eh]
    ---------------------

    Alpha Occupied:                                                       

       1Ap   -20.670313     2Ap   -20.604132     3Ap    -1.462088  
       4Ap    -1.342798     5Ap    -0.733868     6Ap    -0.713608  
       1App   -0.690451     7Ap    -0.636539     2App   -0.525149  
       8Ap    -0.485313  

    Alpha Virtual:                                                        

       9Ap     0.038807    10Ap     0.054188    11Ap     0.151504  
       3App    0.184044    12Ap     0.198108    13Ap     0.210474  
      14Ap     0.223720     4App    0.237607    15Ap     0.237994  
      16Ap     0.326003    17Ap     0.338896     5App    0.361999  
      18Ap     0.426785    19Ap     0.431823     6App    0.461988  
      20Ap     0.556250    21Ap     0.632456    22Ap     0.659576  
      23Ap     0.869912     7App    0.899432    24Ap     0.907717  
      25Ap     1.040652     8App    1.066009    26Ap     1.104444  
       9App    1.146835    27Ap     1.178441    10App    1.223037  
      28Ap     1.285848    29Ap     1.314342    11App    1.355658  
      30Ap     1.470205    12App    1.568089    31Ap     1.568773  
      32Ap     1.619150    33Ap     1.901930    13App    2.041869  
      34Ap     2.095780    14App    2.101580    35Ap     2.216627  
      36Ap     2.402183    37Ap     2.567276    38Ap     2.738892  
      39Ap     2.867895    40Ap     3.160518    15App    3.545295  
      16App    3.575732    41Ap     3.583837    17App    3.613378  
      42Ap     3.659253    18App    3.687764    43Ap     3.728808  
      44Ap     3.743473    45Ap     4.165635    46Ap     4.218530  

    Beta Occupied:                                                        

       1Ap   -20.617561     2Ap   -20.559431     3Ap    -1.291884  
       4Ap    -1.179995     5Ap    -0.674936     6Ap    -0.605075  
       7Ap    -0.502864     1App   -0.467885  

    Beta Virtual:                                                         

       8Ap     0.040405     9Ap     0.051998     2App    0.064095  
      10Ap     0.129833    11Ap     0.183703    12Ap     0.204072  
      13Ap     0.218884     3App    0.221645    14Ap     0.237285  
       4App    0.265672    15Ap     0.282646    16Ap     0.332347  
      17Ap     0.343944     5App    0.372958    18Ap     0.433704  
      19Ap     0.440184     6App    0.473858    20Ap     0.570399  
      21Ap     0.651995    22Ap     0.674624    23Ap     0.888821  
      24Ap     0.913296     7App    0.935781    25Ap     1.058532  
       8App    1.099371    26Ap     1.139862     9App    1.160375  
      27Ap     1.238155    10App    1.292543    28Ap     1.312852  
      29Ap     1.332880    11App    1.457412    30Ap     1.487449  
      12App    1.638466    31Ap     1.639630    32Ap     1.705389  
      33Ap     1.935119    13App    2.048695    14App    2.099817  
      34Ap     2.117103    35Ap     2.226370    36Ap     2.420585  
      37Ap     2.598746    38Ap     2.756541    39Ap     2.883106  
      40Ap     3.209424    15App    3.657851    16App    3.677276  
      41Ap     3.688584    17App    3.710441    18App    3.715008  
      42Ap     3.725721    43Ap     3.797485    44Ap     3.837305  
      45Ap     4.205282    46Ap     4.257925  

    Final Occupation by Irrep:
             Ap   App 
    DOCC [     7,    1 ]
    SOCC [     1,    1 ]

  @UHF Final Energy:  -150.76529360514866

   => Energetics <=

    Nuclear Repulsion Energy =             31.9184647173775211
    One-Electron Energy =                -271.6036265965500434
    Two-Electron Energy =                  88.9198682740238553
    Total Energy =                       -150.7652936051486563

  UHF NO Occupations:
  HONO-2 :    7 Ap 1.9962950
  HONO-1 :    8 Ap 1.0000000
  HONO-0 :    2App 1.0000000
  LUNO+0 :    9 Ap 0.0037050
  LUNO+1 :    3App 0.0023022
  LUNO+2 :   10 Ap 0.0019242
  LUNO+3 :   11 Ap 0.0017581


Computation Completed


Properties will be evaluated at   0.000000,   0.000000,   0.000000 [a0]

Properties computed using the SCF density matrix

  Nuclear Dipole Moment: [e a0]
     X:     0.0000      Y:     0.0000      Z:     0.0000

  Electronic Dipole Moment: [e a0]
     X:    -0.3072      Y:     0.0581      Z:     0.0000

  Dipole Moment: [e a0]
     X:    -0.3072      Y:     0.0581      Z:     0.0000     Total:     0.3126

  Dipole Moment: [D]
     X:    -0.7808      Y:     0.1476      Z:     0.0000     Total:     0.7947


*** tstop() called on smg13363-ws at Fri Jan  8 11:09:24 2021
Module time:
	user time   =       4.25 seconds =       0.07 minutes
	system time =       0.02 seconds =       0.00 minutes
	total time  =          5 seconds =       0.08 minutes
Total time:
	user time   =       4.25 seconds =       0.07 minutes
	system time =       0.02 seconds =       0.00 minutes
	total time  =          5 seconds =       0.08 minutes

    Psi4 stopped on: Friday, 08 January 2021 11:09AM
    Psi4 wall time for execution: 0:00:04.32

*** Psi4 exiting successfully. Buy a developer a beer!
