[Molden Format]
[Atoms] (AU)
O    1    8         1.709004464269      -0.032477147736       0.000000000000
H    2    1         1.709004464269      -1.832504132258       0.000000000000
O    3    8        -1.709004464269       0.032477147736       0.000000000000
H    4    1        -1.709004464269       1.832504132258       0.000000000000
[GTO]
  1 0
 s    8  1.00
    11720.0000000000         0.0007100000
     1759.0000000000         0.0054700000
      400.8000000000         0.0278370000
      113.7000000000         0.1048000000
       37.0300000000         0.2830620000
       13.2700000000         0.4487190000
        5.0250000000         0.2709520000
        1.0130000000         0.0154580000
 s    8  1.00
    11720.0000000000        -0.0001600000
     1759.0000000000        -0.0012630000
      400.8000000000        -0.0062670000
      113.7000000000        -0.0257160000
       37.0300000000        -0.0709240000
       13.2700000000        -0.1654110000
        5.0250000000        -0.1169550000
        1.0130000000         0.5573680000
 s    1  1.00
        0.3023000000         1.0000000000
 p    3  1.00
       17.7000000000         0.0430180000
        3.8540000000         0.2289130000
        1.0460000000         0.5087280000
 p    1  1.00
        0.2753000000         1.0000000000
 d    1  1.00
        1.1850000000         1.0000000000
 s    1  1.00
        0.0789600000         1.0000000000
 p    1  1.00
        0.0685600000         1.0000000000
 d    1  1.00
        0.3320000000         1.0000000000

  2 0
 s    3  1.00
       13.0100000000         0.0196850000
        1.9620000000         0.1379770000
        0.4446000000         0.4781480000
 s    1  1.00
        0.1220000000         1.0000000000
 p    1  1.00
        0.7270000000         1.0000000000
 s    1  1.00
        0.0297400000         1.0000000000
 p    1  1.00
        0.1410000000         1.0000000000

  3 0
 s    8  1.00
    11720.0000000000         0.0007100000
     1759.0000000000         0.0054700000
      400.8000000000         0.0278370000
      113.7000000000         0.1048000000
       37.0300000000         0.2830620000
       13.2700000000         0.4487190000
        5.0250000000         0.2709520000
        1.0130000000         0.0154580000
 s    8  1.00
    11720.0000000000        -0.0001600000
     1759.0000000000        -0.0012630000
      400.8000000000        -0.0062670000
      113.7000000000        -0.0257160000
       37.0300000000        -0.0709240000
       13.2700000000        -0.1654110000
        5.0250000000        -0.1169550000
        1.0130000000         0.5573680000
 s    1  1.00
        0.3023000000         1.0000000000
 p    3  1.00
       17.7000000000         0.0430180000
        3.8540000000         0.2289130000
        1.0460000000         0.5087280000
 p    1  1.00
        0.2753000000         1.0000000000
 d    1  1.00
        1.1850000000         1.0000000000
 s    1  1.00
        0.0789600000         1.0000000000
 p    1  1.00
        0.0685600000         1.0000000000
 d    1  1.00
        0.3320000000         1.0000000000

  4 0
 s    3  1.00
       13.0100000000         0.0196850000
        1.9620000000         0.1379770000
        0.4446000000         0.4781480000
 s    1  1.00
        0.1220000000         1.0000000000
 p    1  1.00
        0.7270000000         1.0000000000
 s    1  1.00
        0.0297400000         1.0000000000
 p    1  1.00
        0.1410000000         1.0000000000

[5D]
[9G]

[MO]
 Sym= A
 Ene=      -2.067031314863e+01
 Spin= Alpha
 Occup=       1.000000000000e+00
  1       1.001997796191e+00
  2       3.898302556260e-03
  3      -8.550435311251e-03
  4      -2.374023165320e-04
  5      -1.438639440024e-03
  6       3.856804767087e-16
  7       1.216371915237e-03
  8       1.791924864121e-03
  9       2.722079212414e-16
 10       2.527898993533e-04
 11      -1.176277488562e-17
 12      -3.822779881701e-17
 13       7.755196532280e-05
 14      -2.534582167391e-05
 15      -2.981901320129e-03
 16      -2.472571031841e-04
 17       9.929380634707e-04
 18       3.059520225533e-16
 19       3.222358979396e-04
 20      -7.890663006674e-17
 21      -3.955689127534e-17
 22      -2.482910524036e-04
 23       9.039255664334e-06
 24       6.020608906933e-04
 25       5.946402837415e-03
 26      -1.191697136315e-04
 27      -4.432374878658e-04
 28       3.044209666712e-16
 29       5.819764475562e-04
 30      -8.599332221355e-05
 31       2.609380296565e-03
 32      -1.774970681188e-16
 33      -5.397659673256e-04
 34      -2.249340371114e-04
 35      -4.144138825326e-05
 36      -1.456361784430e-04
 37       2.832789247233e-05
 38      -1.478102216284e-16
 39       1.096021232407e-03
 40      -3.608997624823e-04
 41      -3.584126534194e-16
 42       3.213117718548e-06
 43       2.931245466388e-16
 44      -2.581296839128e-16
 45       8.060545424419e-07
 46      -5.785835912172e-06
 47      -1.397697281665e-03
 48      -2.752880679879e-04
 49      -3.068828367836e-04
 50      -5.358846567203e-17
 51      -2.955805086235e-04
 52       1.188220667889e-16
 53      -4.374107171305e-16
 54       6.793626035540e-04
 55       8.509395212956e-05
 56       1.417043186073e-04
 57       1.798764907311e-03
 58      -1.828457084306e-04
 59      -4.879506004917e-05
 60      -2.754254465287e-16
 61      -8.387067197537e-05
 62       9.803266242867e-05
 63      -6.459920399994e-04
 64      -3.763371259828e-16
 Sym= A
 Ene=      -2.060413159610e+01
 Spin= Alpha
 Occup=       1.000000000000e+00
  1      -2.850900869824e-04
  2       2.549787208288e-04
  3      -6.665720322359e-05
  4      -1.389408930707e-04
  5       2.899674520602e-05
  6       6.912820882377e-17
  7       1.274688732988e-03
  8      -3.988657124522e-04
  9      -7.583631820138e-17
 10       4.467087403805e-06
 11      -1.050099449975e-16
 12       2.915353077201e-16
 13      -2.205666173425e-05
 14       3.866912974824e-06
 15       1.157815144163e-03
 16      -1.786511046777e-04
 17      -3.390617554217e-04
 18       4.014036684362e-16
 19       3.254624300249e-04
 20      -4.810783444361e-17
 21      -3.152040500777e-17
 22      -7.144296077306e-04
 23      -6.220726564250e-05
 24      -1.398247042059e-04
 25      -1.946999437835e-03
 26      -1.714098850696e-04
 27      -6.083494251749e-05
 28       5.582299623917e-17
 29       4.040640040230e-05
 30       1.409784296519e-04
 31      -6.984897170824e-04
 32      -3.231691414519e-16
 33      -1.001921785315e+00
 34      -3.638408417542e-03
 35       8.310006752368e-03
 36      -4.141446764090e-04
 37      -1.424198582635e-03
 38       7.182696555470e-17
 39       1.460689113179e-03
 40       1.712310785953e-03
 41       4.410788135252e-16
 42       2.580205497285e-04
 43       8.011438508909e-17
 44      -4.781200319458e-16
 45      -3.461680251455e-04
 46       3.960195878551e-05
 47       3.264533274477e-03
 48      -5.168971847858e-05
 49       9.644628735445e-04
 50       3.052532108242e-16
 51      -5.745155577739e-04
 52       1.321412611804e-16
 53       9.117600402813e-16
 54       4.653316104406e-04
 55       1.566452645856e-06
 56      -5.485193151009e-04
 57      -5.754456972459e-03
 58      -1.516257805023e-04
 59      -4.525086815275e-04
 60      -1.848735185265e-16
 61      -5.366584291248e-04
 62      -9.132880084118e-05
 63       2.477482962662e-03
 64      -6.401633331867e-16
 Sym= A
 Ene=      -1.462088122259e+00
 Spin= Alpha
 Occup=       1.000000000000e+00
  1       8.712316606370e-04
  2       4.297598232859e-01
  3       4.059804741911e-01
  4      -3.701468613491e-02
  5      -6.058980921497e-02
  6      -1.496013509036e-16
  7      -2.002194449762e-02
  8       1.402400652256e-02
  9       9.064844245971e-17
 10       7.489468966549e-03
 11       2.703183459538e-17
 12       4.005495628686e-17
 13      -4.290693174671e-03
 14       7.699713227387e-04
 15       4.404687362587e-02
 16       9.330385099512e-04
 17      -1.353750639956e-02
 18      -3.808403903464e-16
 19       1.267397736275e-02
 20       1.462998309623e-16
 21       1.181582128655e-20
 22       2.051108042684e-02
 23      -5.501763469097e-03
 24       1.848889577073e-01
 25      -6.254701390589e-02
 26      -1.620557477874e-03
 27       3.767934039988e-02
 28      -8.612913631401e-18
 29      -4.902395286486e-03
 30       5.999388219221e-03
 31      -2.371844485156e-02
 32      -1.345066378282e-16
 33      -5.502282072367e-04
 34       2.152176578275e-01
 35       1.997342793348e-01
 36       4.640326994167e-02
 37       2.494286346276e-02
 38      -1.799667914175e-16
 39       1.236918930296e-02
 40      -1.046922404078e-02
 41      -8.744162975017e-17
 42      -5.774915949882e-03
 43       5.312071141450e-17
 44       8.412780952544e-17
 45       3.930622896405e-03
 46       6.281390197863e-04
 47       3.871482249003e-02
 48       4.406000819152e-03
 49       8.198891641018e-03
 50      -4.170862516462e-17
 51       4.468905890426e-03
 52      -9.855635237972e-17
 53      -2.992591740709e-16
 54       8.612941075680e-03
 55      -6.090878747423e-03
 56       9.204429738116e-02
 57      -4.629733009465e-02
 58       3.202681569858e-03
 59      -1.810324141076e-02
 60       6.807260095177e-17
 61      -1.365376520223e-03
 62      -4.418432358088e-03
 63       1.873784354092e-02
 64       1.850932537762e-16
 Sym= A
 Ene=      -1.342797756681e+00
 Spin= Alpha
 Occup=       1.000000000000e+00
  1       1.167451439603e-03
  2       2.383687124152e-01
  3       2.357704331753e-01
  4       3.056469675553e-02
  5      -4.662406335716e-02
  6      -3.541546005000e-17
  7      -2.412759693826e-03
  8       1.162670133673e-03
  9       1.432911736187e-16
 10       5.506590145271e-03
 11      -6.447405207386e-19
 12       1.054366193005e-16
 13      -5.635111483940e-03
 14      -4.962093350278e-04
 15       7.936403496516e-03
 16       5.171815334282e-03
 17      -4.998924841546e-03
 18      -3.190419435398e-16
 19       5.168576834544e-03
 20       2.501960851835e-16
 21      -7.354818950927e-17
 22       1.613889981175e-02
 23       2.652223837318e-03
 24       1.116737644231e-01
 25      -6.852325294674e-03
 26       3.248414452114e-03
 27       2.277254431859e-02
 28       8.773732852976e-17
 29      -3.885924118506e-03
 30       1.067947515031e-03
 31      -6.601089201301e-04
 32      -9.569109219316e-18
 33       1.980770335165e-04
 34      -4.329570578750e-01
 35      -4.160573392451e-01
 36      -7.593725802530e-03
 37      -7.043863076320e-02
 38       1.834853468590e-16
 39      -1.744760260677e-02
 40       1.368883467133e-02
 41       2.269877949070e-16
 42       9.134567677988e-03
 43      -2.667252540979e-17
 44      -2.663612365321e-17
 45      -1.841784986750e-03
 46      -5.776318872098e-06
 47      -3.187998557562e-02
 48       3.187622252966e-03
 49      -1.055326451244e-02
 50      -6.654611749520e-16
 51      -4.284864438455e-03
 52      -7.427921042741e-17
 53      -7.190261663963e-17
 54      -2.962793685089e-02
 55       1.914800132543e-03
 56      -2.014219226965e-01
 57       2.992217964954e-02
 58       1.237094517521e-03
 59       3.984564772672e-02
 60       1.604787102529e-17
 61       5.618279025615e-03
 62       3.905078635593e-03
 63      -9.538675739290e-03
 64       3.943328795093e-16
 Sym= A
 Ene=      -7.338677031403e-01
 Spin= Alpha
 Occup=       1.000000000000e+00
  1       2.689635792895e-03
  2       9.982945283926e-02
  3       2.063664808147e-01
  4      -1.698505736565e-01
  5       4.819221177293e-01
  6      -2.234318233809e-15
  7      -1.062859901414e-01
  8       2.349308281488e-01
  9      -1.459816827978e-15
 10       1.258550717594e-02
 11       5.663232166666e-17
 12       8.692663097388e-17
 13       1.851052394800e-02
 14       4.104366454818e-04
 15       1.497460392632e-02
 16      -9.859498416037e-03
 17       3.194153559669e-02
 18      -5.768433662766e-16
 19      -6.638857446255e-03
 20       1.031019155464e-16
 21       1.385683361148e-16
 22      -4.794779668651e-03
 23      -6.665857941698e-05
 24      -3.334505883057e-01
 25      -3.183062490600e-02
 26      -5.057370701310e-03
 27      -4.347390197731e-02
 28      -9.184549845450e-17
 29       4.407076043300e-03
 30       1.055939532116e-03
 31       6.329983078339e-03
 32       2.815374996117e-16
 33       6.824653032560e-05
 34      -6.106079013237e-02
 35      -9.947655605461e-02
 36       2.290455298038e-01
 37       9.696795558290e-02
 38       4.498263593333e-16
 39       1.333319598025e-01
 40       5.607616279813e-02
 41       2.631692498782e-16
 42      -2.173546536877e-03
 43       7.228123746214e-17
 44      -1.303206802174e-16
 45      -1.584952849937e-03
 46       7.116341096221e-03
 47      -5.422961271553e-03
 48       9.351211008501e-03
 49       4.908306794789e-03
 50       3.507135236038e-16
 51       1.265856198930e-03
 52      -2.765816344128e-16
 53       2.669542429985e-16
 54      -6.351519668800e-04
 55       1.089731084637e-02
 56       5.010802694875e-02
 57      -1.417895590194e-02
 58       7.117199955562e-03
 59      -4.057443575410e-03
 60      -1.398306519820e-16
 61      -6.794623211608e-03
 62      -6.539955994738e-03
 63       7.701691042218e-03
 64       3.509282708233e-16
 Sym= A
 Ene=      -7.136082284370e-01
 Spin= Alpha
 Occup=       1.000000000000e+00
  1       2.469338746770e-03
  2       8.495479020026e-02
  3       1.350861898807e-01
  4       3.836630120850e-01
  5       1.562209755471e-01
  6      -8.107960897265e-15
  7       2.441797595130e-01
  8       8.622921877526e-02
  9      -5.071824039416e-15
 10       7.168686034624e-03
 11       1.267693207038e-17
 12       3.227958229662e-17
 13       2.243948218342e-03
 14      -8.533839370024e-03
 15       1.616023885572e-02
 16       2.341969339102e-02
 17       9.448989388659e-04
 18      -4.490563330679e-16
 19       6.548648297018e-03
 20       2.131991922554e-16
 21       3.275341210717e-16
 22      -9.289303811925e-03
 23      -1.750929492162e-02
 24      -8.442721378431e-02
 25       2.906633514065e-04
 26       1.014318328828e-02
 27      -8.034946373671e-03
 28      -2.710555348549e-16
 29       2.272784148064e-03
 30      -9.147287782063e-03
 31       6.729820801168e-03
 32      -3.030011299256e-17
 33      -2.891706287946e-03
 34      -2.975310177412e-02
 35      -6.820510781534e-02
 36      -3.694492540493e-01
 37       2.615343473521e-01
 38      -9.916592499635e-16
 39      -2.134923480618e-01
 40       1.210540531860e-01
 41      -6.166001803466e-16
 42      -3.022898230861e-03
 43       6.210758619129e-18
 44      -1.504072447408e-17
 45      -1.402485611813e-02
 46      -3.537044265431e-03
 47      -3.276164663258e-03
 48      -1.837167946893e-02
 49       2.095207118378e-02
 50      -8.973103868018e-16
 51       4.532700817091e-03
 52      -1.327603033697e-16
 53       6.977477656810e-17
 54       7.907099796402e-03
 55      -7.529126543675e-03
 56       2.014724094976e-01
 57       3.646525050365e-02
 58      -9.660236484748e-03
 59      -2.586061086448e-02
 60      -2.383797306644e-16
 61      -8.846473359212e-04
 62       6.418086309659e-03
 63      -2.126718633999e-03
 64       7.918639095843e-16
 Sym= A
 Ene=      -6.904512305749e-01
 Spin= Alpha
 Occup=       1.000000000000e+00
  1       8.496458904359e-17
  2       1.497767695402e-15
  3       1.857605143919e-16
  4       5.510050003528e-15
  5       3.090095157679e-15
  6       6.702057057226e-01
  7       7.624418048797e-16
  8       5.254896762447e-15
  9       4.262719400949e-01
 10       1.604533388039e-16
 11      -2.372918558320e-03
 12      -1.217910478954e-02
 13       1.699991351956e-16
 14       3.415724513513e-17
 15      -3.445132658731e-14
 16       1.018377772906e-14
 17       5.413587590995e-15
 18       2.863552371506e-02
 19      -1.642454362279e-17
 20      -5.898326942787e-03
 21      -1.722743442830e-02
 22       7.899481678249e-16
 23      -4.601716811133e-16
 24      -9.300954642027e-16
 25       1.557906949086e-14
 26       5.246542493757e-16
 27       1.100801556565e-16
 28       1.879511681887e-02
 29       1.514439682343e-15
 30       1.534121029808e-15
 31       4.510154135521e-15
 32      -4.265047490708e-03
 33      -1.779483540358e-16
 34      -4.703184018735e-16
 35       5.571136462797e-15
 36      -2.392504656065e-15
 37       2.520241329549e-15
 38       1.219625240322e-01
 39      -3.498089695783e-15
 40       8.927457582864e-15
 41       7.196359658859e-02
 42      -1.543366358598e-16
 43       4.245864392410e-03
 44       1.962076273103e-03
 45      -9.743732302589e-17
 46      -6.296470983752e-17
 47       5.616244055028e-14
 48       1.187878714060e-14
 49       1.006179871981e-14
 50       6.765158446819e-03
 51      -6.480352678295e-17
 52      -3.589412941417e-03
 53       2.532944248049e-03
 54      -1.510899421134e-15
 55      -7.290559421792e-16
 56       1.349243649656e-15
 57      -3.871871500210e-14
 58       4.052239392864e-16
 59       1.063387428520e-15
 60       5.788331299027e-03
 61      -5.716867151859e-15
 62      -3.073022959834e-16
 63       1.052401610345e-14
 64      -1.018563172773e-03
 Sym= A
 Ene=      -6.365391592367e-01
 Spin= Alpha
 Occup=       1.000000000000e+00
  1       1.624396846734e-03
  2       5.949322452204e-02
  3       1.175947767131e-01
  4       1.488637872451e-01
  5       2.311192647237e-01
  6      -1.917061531757e-17
  7       9.753183141259e-02
  8       1.122343439484e-01
  9       1.465845433149e-17
 10       7.120809266377e-03
 11      -6.038920043778e-18
 12       1.023089581979e-16
 13       8.049841669895e-03
 14      -1.813701383157e-03
 15       8.699274003221e-03
 16       1.952437561375e-02
 17       1.077651732858e-02
 18       4.422047876874e-16
 19       8.348707391996e-04
 20      -2.039048074538e-18
 21      -5.751679249645e-17
 22      -6.382192926681e-03
 23       3.325776764447e-03
 24      -1.583714715766e-01
 25      -1.334520702805e-02
 26       3.781260157962e-03
 27      -1.973587550601e-02
 28       8.077867673422e-17
 29      -4.435337608772e-03
 30      -7.890828672642e-03
 31       1.005748949298e-02
 32      -7.762485157073e-17
 33       1.458853072395e-03
 34       1.247916994319e-01
 35       2.502022977463e-01
 36      -1.921026208085e-01
 37      -4.662084807769e-01
 38      -1.917245674943e-15
 39      -1.202463124938e-01
 40      -2.360772496916e-01
 41      -1.102258684561e-15
 42       8.271073549235e-03
 43      -3.792096029646e-17
 44      -9.783550191948e-18
 45       1.885058659726e-02
 46      -5.838456058137e-03
 47       4.957092008614e-02
 48      -1.299632414250e-02
 49      -2.790504734554e-02
 50      -1.929322330557e-16
 51      -7.400713217820e-03
 52       1.688215683433e-17
 53      -1.219902828868e-16
 54      -6.718798887931e-03
 55      -5.326115125686e-03
 56      -3.252333464560e-01
 57      -4.163743793391e-02
 58      -4.934284420550e-03
 59       3.834108615210e-02
 60       2.539198079026e-16
 61       6.893955652404e-04
 62       9.622155757038e-03
 63      -1.602741560898e-02
 64      -1.572473949668e-16
 Sym= A
 Ene=      -5.251493156300e-01
 Spin= Alpha
 Occup=       1.000000000000e+00
  1       9.118981643697e-17
  2       2.740473090523e-16
  3      -2.653908130425e-15
  4      -7.342000523291e-16
  5       4.847010413308e-16
  6       1.707581757548e-01
  7      -1.701786582154e-15
  8       1.338811628844e-15
  9       1.145970354196e-01
 10       5.733019850471e-17
 11       2.566358370844e-03
 12      -3.274504962213e-03
 13      -7.323648816699e-17
 14      -1.232634038998e-16
 15       1.403631099309e-15
 16      -5.827008935683e-15
 17       5.420547154838e-15
 18       1.861150591073e-02
 19      -1.639695197793e-16
 20       5.308533734181e-03
 21      -4.280814026353e-03
 22       6.520224415715e-16
 23       5.760262696359e-17
 24       6.039576735867e-16
 25       9.070124360464e-15
 26      -6.666976235637e-17
 27       6.124522126021e-16
 28       4.684864091374e-03
 29       5.380951417464e-15
 30      -1.202921832263e-16
 31       1.204517801667e-15
 32      -1.936281256212e-03
 33      -2.959264167900e-16
 34      -9.314852112880e-16
 35       8.633885169499e-16
 36      -3.437248399751e-16
 37       1.169225166801e-15
 38      -6.450678757428e-01
 39      -2.342943884356e-16
 40       1.193977074726e-15
 41      -4.457105031784e-01
 42      -2.372115337701e-16
 43      -2.951108642147e-03
 44      -1.196189663930e-02
 45      -3.284735003076e-17
 46       5.534958107020e-17
 47      -1.281872455983e-14
 48      -5.122802136852e-15
 49      -1.555061964731e-16
 50      -6.542487005332e-02
 51       3.452955140236e-16
 52      -4.885522023993e-03
 53      -1.276315625893e-02
 54       1.574624773791e-17
 55       2.672004529834e-16
 56      -5.767925074391e-17
 57       2.664990606570e-15
 58      -9.516341578066e-17
 59       2.188361940217e-17
 60      -2.463145663992e-02
 61      -3.025237169016e-15
 62      -1.375276956517e-15
 63      -3.977264326185e-16
 64      -1.040905260408e-02
 Sym= A
 Ene=      -4.853127232598e-01
 Spin= Alpha
 Occup=       1.000000000000e+00
  1       5.828758112673e-03
  2       7.182693029967e-02
  3       1.085653520806e-01
  4      -5.330834098696e-01
  5       2.145758566058e-02
  6       9.511981118758e-16
  7      -4.060445826025e-01
  8       3.138452324111e-02
  9       6.050143354293e-16
 10       5.395164407655e-03
 11      -2.959071131166e-16
 12       2.989278078745e-16
 13      -5.598224515437e-03
 14       1.032060969719e-02
 15       4.877009631704e-02
 16      -7.803883694122e-02
 17       1.233368099688e-02
 18      -5.456951688605e-16
 19      -2.757234920621e-03
 20       1.092239725635e-16
 21      -1.709442339910e-16
 22       1.280361422154e-02
 23       8.708607883777e-03
 24       5.670556793049e-03
 25       2.500568218902e-02
 26      -1.689650442710e-02
 27       4.258605916582e-03
 28       3.793048099245e-17
 29       1.351464159355e-02
 30      -9.673672507958e-03
 31       1.353408600704e-02
 32       6.570948818937e-17
 33      -5.036168064058e-03
 34      -7.536969043441e-02
 35      -1.194038286793e-01
 36      -5.164797697045e-01
 37       3.241213557767e-02
 38       1.283590980278e-15
 39      -3.929688336691e-01
 40       3.687916782637e-02
 41       1.196262101787e-15
 42      -2.274230650491e-03
 43       1.625015464542e-16
 44       2.189781509485e-16
 45       3.196133878462e-03
 46      -9.507437863119e-03
 47      -5.601526040072e-02
 48      -7.235885373604e-02
 49       1.626458658049e-02
 50       8.887791655985e-16
 51       3.244936167067e-03
 52      -1.577620944694e-16
 53      -3.322134240908e-17
 54      -1.189729479811e-02
 55      -8.902897253021e-03
 56       6.586139942678e-04
 57      -2.551788181631e-02
 58      -1.425551728463e-02
 59       3.255146264423e-03
 60       6.647756284702e-17
 61      -1.318085452412e-02
 62      -4.571123003579e-03
 63       1.275759685915e-02
 64      -1.360202399548e-15
 Sym= A
 Ene=       3.880663869506e-02
 Spin= Alpha
 Occup=       0.000000000000e+00
  1      -7.342925213357e-04
  2       4.579979833483e-02
  3       1.774052532429e-01
  4       3.013353533628e-02
  5      -5.064004458976e-02
  6      -1.676801718704e-16
  7       2.104793338811e-02
  8      -1.203598361691e-01
  9      -2.125404642224e-16
 10       7.264209454843e-04
 11       1.860226104181e-16
 12       5.355300397213e-17
 13       1.686063111541e-04
 14       6.415919233547e-04
 15       1.104453587841e+00
 16       6.137059525441e-02
 17      -2.681475486800e-01
 18       6.067073388051e-16
 19      -8.268579864662e-03
 20      -9.806330336515e-17
 21       3.629916828861e-17
 22      -7.586626925057e-03
 23      -7.875098788923e-03
 24      -3.171005674007e-02
 25      -6.868662333123e-01
 26      -2.055825306905e-03
 27       4.149112576163e-03
 28       4.750334622050e-17
 29      -1.401719347880e+00
 30       3.026523741638e-02
 31      -1.915966262745e-01
 32      -5.698744321857e-17
 33       3.284687570144e-04
 34       3.832983305237e-02
 35       1.174488783685e-01
 36      -5.500493320119e-03
 37       2.108909071058e-02
 38      -2.293152973095e-16
 39       8.400481747124e-03
 40       7.251760954941e-02
 41       2.968486188977e-16
 42      -7.182017420755e-04
 43      -1.289445769744e-16
 44      -8.104874386502e-17
 45       6.531505016995e-04
 46       1.101259255246e-03
 47       8.506208791755e-01
 48       4.835983373637e-02
 49       7.114415892771e-02
 50      -9.505246112758e-16
 51      -7.845988373118e-03
 52       1.089438477282e-16
 53       1.945052664557e-16
 54       1.580054373482e-03
 55      -9.690415009711e-03
 56      -2.205390581871e-02
 57      -4.198100338143e-01
 58       1.510222536616e-03
 59      -2.705005573023e-03
 60      -2.325240739914e-16
 61      -4.779758162777e-01
 62      -2.963868190466e-02
 63       1.430112510186e-01
 64       1.632884104807e-16
 Sym= A
 Ene=       5.418801336978e-02
 Spin= Alpha
 Occup=       0.000000000000e+00
  1       2.609049334264e-03
  2       2.076032479823e-03
  3      -5.702444343790e-02
  4      -2.984856740114e-02
  5       4.121837135782e-02
  6      -7.764081784276e-17
  7      -3.617617416253e-02
  8       7.239548738821e-02
  9      -1.936974174568e-16
 10       1.496805421868e-03
 11      -1.610699835522e-16
 12      -1.868044144103e-17
 13      -3.174275288165e-04
 14       2.633821636873e-04
 15      -3.758119287259e-01
 16      -2.442482541717e-01
 17       3.283006600104e-01
 18       8.169911697345e-17
 19      -5.051376720921e-03
 20       1.493829634098e-16
 21       7.525273862734e-17
 22       2.047327094898e-02
 23      -4.328347987393e-03
 24       4.383891500839e-03
 25       3.900403715385e-01
 26       9.168536881399e-04
 27      -7.071789380898e-04
 28       1.698706949264e-16
 29       1.677724236051e+00
 30       1.286049433744e-02
 31       8.035613533560e-02
 32      -5.194942065493e-17
 33      -3.829984209295e-03
 34       1.505568214289e-02
 35       1.372581766646e-01
 36      -3.689404747719e-02
 37       5.454595326594e-02
 38       1.813235957781e-16
 39      -3.638891417028e-02
 40       1.210468191618e-01
 41      -2.800963870847e-16
 42      -2.219658938043e-03
 43      -1.458616969723e-16
 44       5.818775589686e-17
 45       9.730132182550e-04
 46       1.684622465620e-04
 47       9.574234205436e-01
 48      -2.629651368629e-01
 49       4.914584756388e-01
 50       4.743586365346e-16
 51       8.133176895485e-04
 52       2.533931068635e-16
 53      -6.854378750853e-17
 54      -2.410957618694e-02
 55      -1.378008432848e-04
 56      -1.413267562614e-02
 57      -7.275365488447e-01
 58       1.324305255387e-03
 59      -9.581189151284e-04
 60       1.719434860541e-16
 61      -2.184692108209e+00
 62       2.411693413750e-03
 63       1.874381639883e-01
 64       2.175319596606e-16
 Sym= A
 Ene=       1.515036986648e-01
 Spin= Alpha
 Occup=       0.000000000000e+00
  1       4.256367033835e-03
  2      -1.694366474269e-02
  3      -1.536718763774e-01
  4      -7.340775893399e-02
  5      -7.668724634779e-02
  6      -8.623568848590e-17
  7      -8.191492411169e-02
  8       6.219895257532e-02
  9      -5.666390317356e-16
 10      -6.820722428334e-03
 11      -3.290482432001e-17
 12      -1.292550181479e-16
 13       2.583790012116e-03
 14       6.385450702758e-03
 15      -4.198929570382e+00
 16       1.971807297683e+00
 17       1.010307860757e+00
 18       3.306660579394e-15
 19       3.918615107003e-02
 20      -3.914565254725e-17
 21       6.123031802475e-17
 22       4.450899766241e-03
 23      -1.944160613155e-02
 24       2.006541911915e-02
 25       1.612655950728e+00
 26       1.529582030097e-03
 27       2.795300202628e-02
 28       5.688349793463e-17
 29       1.841806620024e-01
 30      -8.672498771795e-02
 31       2.641570402232e-01
 32       1.365873748381e-15
 33      -2.922196722866e-03
 34       2.092728946534e-02
 35       1.333626688847e-01
 36      -6.767199133852e-02
 37      -5.992177241231e-02
 38       7.226652794141e-16
 39      -6.656897493541e-02
 40       7.451931349193e-02
 41      -1.433295747058e-16
 42       4.365419558298e-03
 43       2.045088229115e-16
 44       2.479104766293e-17
 45      -1.434879813382e-03
 46      -5.255222022190e-03
 47       4.125605370323e+00
 48       1.870102152986e+00
 49       8.121746647259e-01
 50      -9.094271018087e-15
 51      -3.464991933312e-02
 52      -1.593803755391e-16
 53      -7.220216628605e-16
 54      -4.239224851319e-03
 55       1.623141617864e-02
 56      -2.564844190028e-02
 57      -1.487576428584e+00
 58       2.004474428107e-03
 59       2.489127145432e-02
 60      -4.725650735904e-17
 61      -1.857200321389e-01
 62      -7.041401876071e-02
 63       2.217185747714e-01
 64       5.205541968802e-15
 Sym= A
 Ene=       1.840436502274e-01
 Spin= Alpha
 Occup=       0.000000000000e+00
  1       2.877075892814e-16
  2       1.237335053124e-15
  3      -2.221609351798e-15
  4       1.440861533470e-16
  5      -8.526340381226e-16
  6       1.406257745536e-01
  7       1.158554830664e-15
  8       1.396081503380e-15
  9       2.347488350987e-01
 10       6.514557186637e-17
 11      -2.216897900347e-03
 12      -1.063406916297e-02
 13       2.167013872014e-16
 14       3.891542860295e-18
 15      -2.226937857080e-14
 16      -2.851541354766e-15
 17       4.727278437458e-15
 18      -1.054926759593e+00
 19       3.536959494991e-16
 20      -1.630900982330e-03
 21       3.755059820666e-02
 22      -3.844286081352e-16
 23       3.677439503635e-17
 24      -7.366501067877e-16
 25       1.558941137569e-14
 26       1.116560553800e-17
 27       4.387038054004e-16
 28      -1.091609347803e-02
 29       1.268101023517e-14
 30      -9.509413140126e-16
 31       1.047440580857e-14
 32       2.313125436801e-01
 33      -3.379483348115e-18
 34       2.961825631317e-16
 35      -3.585633868920e-16
 36       2.952830958738e-16
 37       3.835608596330e-16
 38       1.078682056532e-01
 39       9.594752611709e-16
 40      -1.285872888096e-15
 41       1.756131452070e-01