
    -----------------------------------------------------------------------
          Psi4: An Open-Source Ab Initio Electronic Structure Package
                               Psi4 1.4a2.dev845 

                         Git: Rev {sgoodlett} c139f7d dirty


    D. G. A. Smith, L. A. Burns, A. C. Simmonett, R. M. Parrish,
    M. C. Schieber, R. Galvelis, P. Kraus, H. Kruse, R. Di Remigio,
    A. Alenaizan, A. M. James, S. Lehtola, J. P. Misiewicz, M. Scheurer,
    R. A. Shaw, J. B. Schriber, Y. Xie, Z. L. Glick, D. A. Sirianni,
    J. S. O'Brien, J. M. Waldrop, A. Kumar, E. G. Hohenstein,
    B. P. Pritchard, B. R. Brooks, H. F. Schaefer III, A. Yu. Sokolov,
    K. Patkowski, A. E. DePrince III, U. Bozkaya, R. A. King,
    F. A. Evangelista, J. M. Turney, T. D. Crawford, C. D. Sherrill,
    J. Chem. Phys. 152(18) 184108 (2020). https://doi.org/10.1063/5.0006002

                            Additional Code Authors
    E. T. Seidl, C. L. Janssen, E. F. Valeev, M. L. Leininger,
    J. F. Gonthier, R. M. Richard, H. R. McAlexander, M. Saitow, X. Wang,
    P. Verma, and M. H. Lechner

             Previous Authors, Complete List of Code Contributors,
                       and Citations for Specific Modules
    https://github.com/psi4/psi4/blob/master/codemeta.json
    https://github.com/psi4/psi4/graphs/contributors
    http://psicode.org/psi4manual/master/introduction.html#citing-psifour

    -----------------------------------------------------------------------


    Psi4 started on: Friday, 08 January 2021 10:54AM

    Process ID: 24523
    Host:       smg13363-ws
    PSIDATADIR: /home/smg13363/psi4/objdir/stage/share/psi4
    Memory:     500.0 MiB
    Threads:    1
    
  ==> Input File <==

--------------------------------------------------------------------------
molecule {
0 3
O
O 1 r1
H 1 r2 2 a1
H 2 r3 1 a2 3 d1

r1 = 1.809056191785725
r2 = 1.1
r3 = 0.80
a1 = 91.083269531831675
a2 = 91.083269531831675
d1 = 180.000000000000000
}

set {
e_convergence 10
scf_type pk
reference uhf
basis aug-cc-pvdz
mp2_type conv
}

optimize('mp2')

--------------------------------------------------------------------------

Scratch directory: /tmp/
gradient() will perform analytic gradient computation.

*** tstart() called on smg13363-ws
*** at Fri Jan  8 10:54:52 2021

   => Loading Basis Set <=

    Name: AUG-CC-PVDZ
    Role: ORBITAL
    Keyword: BASIS
    atoms 1-2 entry O          line   254 file /home/smg13363/psi4/objdir/stage/share/psi4/basis/aug-cc-pvdz.gbs 
    atoms 3-4 entry H          line    40 file /home/smg13363/psi4/objdir/stage/share/psi4/basis/aug-cc-pvdz.gbs 


         ---------------------------------------------------------
                                   SCF
               by Justin Turney, Rob Parrish, Andy Simmonett
                          and Daniel G. A. Smith
                              UHF Reference
                        1 Threads,    500 MiB Core
         ---------------------------------------------------------

  ==> Geometry <==

    Molecular point group: cs
    Full point group: Cs

    Geometry (in Angstrom), charge = 0, multiplicity = 3:

       Center              X                  Y                   Z               Mass       
    ------------   -----------------  -----------------  -----------------  -----------------
         O            0.008889551886     0.904360004484     0.000000000000    15.994914619570
         O            0.008889551886    -0.904696187302     0.000000000000    15.994914619570
         H           -1.090913850817     0.925156047491     0.000000000000     1.007825032230
         H            0.808746572033    -0.919820582216     0.000000000000     1.007825032230

  Running in cs symmetry.

  Rotational constants: A =      9.67874  B =      0.60189  C =      0.56665 [cm^-1]
  Rotational constants: A = 290161.29196  B =  18044.18458  C =  16987.77052 [MHz]
  Nuclear repulsion =   32.169479849078989

  Charge       = 0
  Multiplicity = 3
  Electrons    = 18
  Nalpha       = 10
  Nbeta        = 8

  ==> Algorithm <==

  SCF Algorithm Type is PK.
  DIIS enabled.
  MOM disabled.
  Fractional occupation disabled.
  Guess Type is SAD.
  Energy threshold   = 1.00e-10
  Density threshold  = 1.00e-10
  Integral threshold = 0.00e+00

  ==> Primary Basis <==

  Basis Set: AUG-CC-PVDZ
    Blend: AUG-CC-PVDZ
    Number of shells: 28
    Number of basis function: 64
    Number of Cartesian functions: 68
    Spherical Harmonics?: true
    Max angular momentum: 2

  ==> Integral Setup <==

  Using in-core PK algorithm.
   Calculation information:
      Number of atoms:                   4
      Number of AO shells:              28
      Number of primitives:             64
      Number of atomic orbitals:        68
      Number of basis functions:        64

      Integral cutoff                 1.00e-12
      Number of threads:                 1

  Performing in-core PK
  Using 4328480 doubles for integral storage.
  We computed 82621 shell quartets total.
  Whereas there are 82621 unique shell quartets.

  ==> DiskJK: Disk-Based J/K Matrices <==

    J tasked:                  Yes
    K tasked:                  Yes
    wK tasked:                  No
    Memory [MiB]:              375
    Schwarz Cutoff:          1E-12

    OpenMP threads:              1

  Minimum eigenvalue in the overlap matrix is 1.5704759006E-03.
  Reciprocal condition number of the overlap matrix is 2.5138082880E-04.
    Using symmetric orthogonalization.

  ==> Pre-Iterations <==

  SCF Guess: Superposition of Atomic Densities via on-the-fly atomic UHF (no occupation information).

   -------------------------
    Irrep   Nso     Nmo    
   -------------------------
     A'        46      46 
     A"        18      18 
   -------------------------
    Total      64      64
   -------------------------

  ==> Iterations <==

                        Total Energy        Delta E     RMS |[F,P]|

   @UHF iter SAD:  -149.53240677809586   -1.49532e+02   0.00000e+00 
   @UHF iter   1:  -150.57818396948704   -1.04578e+00   8.64926e-03 DIIS
   @UHF iter   2:  -150.63529377317326   -5.71098e-02   6.44099e-03 DIIS
   @UHF iter   3:  -150.67488611315082   -3.95923e-02   1.89723e-03 DIIS
   @UHF iter   4:  -150.68439264701644   -9.50653e-03   1.09063e-03 DIIS
   @UHF iter   5:  -150.69204193257150   -7.64929e-03   9.19464e-04 DIIS
   @UHF iter   6:  -150.69880028522704   -6.75835e-03   8.84489e-04 DIIS
   @UHF iter   7:  -150.71197723535531   -1.31770e-02   5.04541e-04 DIIS
   @UHF iter   8:  -150.71453427204136   -2.55704e-03   1.48295e-04 DIIS
   @UHF iter   9:  -150.71467014460879   -1.35873e-04   6.78057e-05 DIIS
   @UHF iter  10:  -150.71467285431044   -2.70970e-06   5.21214e-05 DIIS
   @UHF iter  11:  -150.71469152190494   -1.86676e-05   2.95436e-05 DIIS
   @UHF iter  12:  -150.71469754633907   -6.02443e-06   8.72208e-06 DIIS
   @UHF iter  13:  -150.71469822251635   -6.76177e-07   2.42539e-06 DIIS
   @UHF iter  14:  -150.71469822707809   -4.56174e-09   2.00177e-06 DIIS
   @UHF iter  15:  -150.71469825778928   -3.07112e-08   2.38472e-07 DIIS
   @UHF iter  16:  -150.71469825812414   -3.34865e-10   9.31825e-08 DIIS
   @UHF iter  17:  -150.71469825816735   -4.32010e-11   5.16328e-08 DIIS
   @UHF iter  18:  -150.71469825818497   -1.76215e-11   2.47682e-08 DIIS
   @UHF iter  19:  -150.71469825818951   -4.54747e-12   1.06827e-08 DIIS
   @UHF iter  20:  -150.71469825819003   -5.11591e-13   3.95956e-09 DIIS
   @UHF iter  21:  -150.71469825819003    0.00000e+00   1.35741e-09 DIIS
   @UHF iter  22:  -150.71469825819020   -1.70530e-13   6.07943e-10 DIIS
   @UHF iter  23:  -150.71469825819003    1.70530e-13   2.14532e-10 DIIS
   @UHF iter  24:  -150.71469825819011   -8.52651e-14   6.95017e-11 DIIS
  Energy and wave function converged.


  ==> Post-Iterations <==

   @Spin Contamination Metric:   2.771451621E-02
   @S^2 Expected:                2.000000000E+00
   @S^2 Observed:                2.027714516E+00
   @S   Expected:                1.000000000E+00
   @S   Observed:                1.000000000E+00

    Orbital Energies [Eh]
    ---------------------

    Alpha Occupied:                                                       

       1Ap   -20.683938     2Ap   -20.584299     3Ap    -1.462208  
       4Ap    -1.365466     5Ap    -0.733347     6Ap    -0.707181  
       1App   -0.689562     7Ap    -0.645653     2App   -0.527516  
       8Ap    -0.486116  

    Alpha Virtual:                                                        

       9Ap     0.035151    10Ap     0.055523    11Ap     0.151507  
      12Ap     0.181325     3App    0.183798    13Ap     0.205912  
      14Ap     0.225155     4App    0.235799    15Ap     0.241443  
      16Ap     0.303969     5App    0.356377    17Ap     0.363893  
      18Ap     0.426986    19Ap     0.437218     6App    0.473218  
      20Ap     0.561471    21Ap     0.582324    22Ap     0.690318  
      23Ap     0.848229     7App    0.900731    24Ap     0.980861  
      25Ap     1.041259     8App    1.062658    26Ap     1.099035  
       9App    1.144068    27Ap     1.181743    10App    1.212346  
      28Ap     1.289509    29Ap     1.309857    11App    1.366358  
      30Ap     1.480016    31Ap     1.570027    12App    1.575039  
      32Ap     1.618506    33Ap     1.926320    13App    1.974305  
      34Ap     2.056652    35Ap     2.187754    14App    2.215000  
      36Ap     2.328691    37Ap     2.527582    38Ap     2.831522  
      39Ap     3.037356    40Ap     3.187857    15App    3.543292  
      16App    3.555057    41Ap     3.585059    17App    3.610515  
      42Ap     3.666283    43Ap     3.710603    18App    3.732395  
      44Ap     3.772031    45Ap     3.955612    46Ap     4.518537  

    Beta Occupied:                                                        

       1Ap   -20.628425     2Ap   -20.540986     3Ap    -1.309161  
       4Ap    -1.181499     5Ap    -0.669134     6Ap    -0.606783  
       7Ap    -0.498026     1App   -0.472913  

    Beta Virtual:                                                         

       8Ap     0.037358     9Ap     0.053257     2App    0.066578  
      10Ap     0.129846    11Ap     0.179354    12Ap     0.197646  
      13Ap     0.215660     3App    0.218822    14Ap     0.231982  
       4App    0.270877    15Ap     0.279722    16Ap     0.313976  
       5App    0.366958    17Ap     0.369101    18Ap     0.428862  
      19Ap     0.445650     6App    0.480750    20Ap     0.580854  
      21Ap     0.598695    22Ap     0.702550    23Ap     0.859512  
       7App    0.936730    24Ap     0.990374    25Ap     1.056984  
       8App    1.093415    26Ap     1.141345     9App    1.157546  
      27Ap     1.238742    10App    1.296376    28Ap     1.316776  
      29Ap     1.328561    11App    1.466245    30Ap     1.497374  
      31Ap     1.627572    12App    1.632822    32Ap     1.722175  
      33Ap     1.949200    13App    1.976662    34Ap     2.081814  
      35Ap     2.210086    14App    2.214884    36Ap     2.352403  
      37Ap     2.537974    38Ap     2.849864    39Ap     3.067299  
      40Ap     3.235271    15App    3.656086    16App    3.664545  
      41Ap     3.692259    17App    3.705794    42Ap     3.732936  
      18App    3.757191    43Ap     3.785289    44Ap     3.863450  
      45Ap     4.003393    46Ap     4.546879  

    Final Occupation by Irrep:
             Ap   App 
    DOCC [     7,    1 ]
    SOCC [     1,    1 ]

  @UHF Final Energy:  -150.71469825819011

   => Energetics <=

    Nuclear Repulsion Energy =             32.1694798490789893
    One-Electron Energy =                -271.9761443730552628
    Two-Electron Energy =                  89.0919662657861693
    Total Energy =                       -150.7146982581901113

  UHF NO Occupations:
  HONO-2 :    7 Ap 1.9953012
  HONO-1 :    8 Ap 1.0000000
  HONO-0 :    2App 1.0000000
  LUNO+0 :    9 Ap 0.0046988
  LUNO+1 :   10 Ap 0.0037430
  LUNO+2 :    3App 0.0020673
  LUNO+3 :   11 Ap 0.0016239


Computation Completed


Properties will be evaluated at   0.000000,   0.000000,   0.000000 [a0]

Properties computed using the SCF density matrix

  Nuclear Dipole Moment: [e a0]
     X:    -0.2644      Y:     0.0050      Z:     0.0000

  Electronic Dipole Moment: [e a0]
     X:     0.0895      Y:     0.3447      Z:     0.0000

  Dipole Moment: [e a0]
     X:    -0.1749      Y:     0.3497      Z:     0.0000     Total:     0.3910

  Dipole Moment: [D]
     X:    -0.4447      Y:     0.8888      Z:     0.0000     Total:     0.9938


*** tstop() called on smg13363-ws at Fri Jan  8 10:54:52 2021
Module time:
	user time   =       0.75 seconds =       0.01 minutes
	system time =       0.02 seconds =       0.00 minutes
	total time  =          0 seconds =       0.00 minutes
Total time:
	user time   =       0.75 seconds =       0.01 minutes
	system time =       0.02 seconds =       0.00 minutes
	total time  =          0 seconds =       0.00 minutes
 MINTS: Wrapper to libmints.
   by Justin Turney

   Calculation information:
      Number of threads:                 1
      Number of atoms:                   4
      Number of AO shells:              28
      Number of SO shells:              28
      Number of primitives:             64
      Number of atomic orbitals:        68
      Number of basis functions:        64

      Number of irreps:                  2
      Integral cutoff                 0.00e+00
      Number of functions per irrep: [  46   18 ]

 OEINTS: Overlap, kinetic, potential, dipole, and quadrupole integrals
         stored in file 35.

      Computing two-electron integrals...done
      Computed 1061727 non-zero two-electron integrals.
        Stored in file 33.


*** tstart() called on smg13363-ws
*** at Fri Jan  8 10:54:53 2021



  Module OCC Options:
  ----------------------------------------------------------------------------
  ACTIVE                        => (empty)          
  BASIS_RELATIVISTIC            => (empty)          
  BENCH                         => (empty)          
  CACHELEVEL                    => (empty)          
  CCL_ENERGY                    => (empty)          
  CC_DIIS_MAX_VECS              => (empty)          
  CC_DIIS_MIN_VECS              => (empty)          
  CC_MAXITER                    => (empty)          
  CC_TYPE                       => (empty)          
  CEPA_OS_SCALE                 => (empty)          
  CEPA_SOS_SCALE                => (empty)          
  CEPA_SS_SCALE                 => (empty)          
  CEPA_TYPE                     => (empty)          
  CI_TYPE                       => (empty)          
  CUBEPROP_BASIS_FUNCTIONS      => (empty)          
  CUBEPROP_FILEPATH             => (empty)          
  CUBEPROP_ISOCONTOUR_THRESHOLD => (empty)          
  CUBEPROP_ORBITALS             => (empty)          
  CUBEPROP_TASKS                => (empty)          
  CUBIC_BASIS_TOLERANCE         => (empty)          
  CUBIC_BLOCK_MAX_POINTS        => (empty)          
  CUBIC_GRID_OVERAGE            => (empty)          
  CUBIC_GRID_SPACING            => (empty)          
  CUTOFF                        => (empty)          
  DEBUG                         => (empty)          
  DERTYPE                       => FIRST           !
  DF_BASIS_CC                   => (empty)          
  DIE_IF_NOT_CONVERGED          => (empty)          
  DIIS_MAX_VECS                 => (empty)          
  DIIS_MIN_VECS                 => (empty)          
  DKH_ORDER                     => (empty)          
  DOCC                          => (empty)          
  DO_DIIS                       => (empty)          
  DO_LEVEL_SHIFT                => (empty)          
  DO_SCS                        => (empty)          
  DO_SOS                        => (empty)          
  E3_SCALE                      => (empty)          
  EA_POLES                      => (empty)          
  EKT_EA                        => (empty)          
  EKT_IP                        => (empty)          
  EP_EA_POLES                   => (empty)          
  EP_IP_POLES                   => (empty)          
  EP_MAXITER                    => (empty)          
  EXTERNAL_POTENTIAL_SYMMETRY   => (empty)          
  E_CONVERGENCE                 => 1e-10           !
  FREEZE_CORE                   => (empty)          
  FROZEN_DOCC                   => (empty)          
  FROZEN_UOCC                   => (empty)          
  INTEGRAL_PACKAGE              => (empty)          
  IP_POLES                      => (empty)          
  LEVEL_SHIFT                   => (empty)          
  LINEQ_SOLVER                  => (empty)          
  LITERAL_CFOUR                 => (empty)          
  MAT_NUM_COLUMN_PRINT          => (empty)          
  MAX_MOGRAD_CONVERGENCE        => (empty)          
  MOGRAD_DAMPING                => (empty)          
  MOLDEN_WITH_VIRTUAL           => (empty)          
  MO_DIIS_NUM_VECS              => (empty)          
  MO_MAXITER                    => (empty)          
  MO_READ                       => (empty)          
  MO_STEP_MAX                   => (empty)          
  MO_WRITE                      => (empty)          
  MP2_OS_SCALE                  => (empty)          
  MP2_SOS_SCALE                 => (empty)          
  MP2_SOS_SCALE2                => (empty)          
  MP2_SS_SCALE                  => (empty)          
  MP2_TYPE                      => CONV            !
  MP_TYPE                       => (empty)          
  NAT_ORBS                      => (empty)          
  NUM_FROZEN_DOCC               => (empty)          
  NUM_FROZEN_UOCC               => (empty)          
  NUM_GPUS                      => (empty)          
  OCC_ORBS_PRINT                => (empty)          
  OEPROP                        => (empty)          
  OPT_METHOD                    => (empty)          
  ORB_OPT                       => FALSE           !
  ORB_RESP_SOLVER               => (empty)          
  ORTH_TYPE                     => (empty)          
  OS_SCALE                      => (empty)          
  PARENT_SYMMETRY               => (empty)          
  PCG_BETA_TYPE                 => (empty)          
  PCG_CONVERGENCE               => (empty)          
  PCG_MAXITER                   => (empty)          
  PCM                           => (empty)          
  PE                            => (empty)          
  PRINT                         => (empty)          
  PRINT_NOONS                   => (empty)          
  PROPERTIES                    => (empty)          
  PROPERTIES_ORIGIN             => (empty)          
  PUREAM                        => (empty)          
  QC_MODULE                     => (empty)          
  RAS1                          => (empty)          
  RAS2                          => (empty)          
  RAS3                          => (empty)          
  RAS4                          => (empty)          
  RELATIVISTIC                  => (empty)          
  RELAXED                       => (empty)          
  RESTRICTED_DOCC               => (empty)          
  RESTRICTED_UOCC               => (empty)          
  RMS_MOGRAD_CONVERGENCE        => (empty)          
  R_CONVERGENCE                 => (empty)          
  SCF_TYPE                      => PK              !
  SCS_TYPE                      => (empty)          
  SOCC                          => (empty)          
  SOS_TYPE                      => (empty)          
  SPIN_SCALE_TYPE               => NONE            !
  SS_SCALE                      => (empty)          
  SYMMETRIZE                    => (empty)          
  TPDM_ABCD_TYPE                => (empty)          
  WFN                           => (empty)          
  WFN_TYPE                      => OMP2            !
  WRITER_FILE_LABEL             => (empty)          


 ============================================================================== 
 ============================================================================== 
 ============================================================================== 

                             MP2   
                    Program Written by Ugur Bozkaya,
              Additional Contributions by J. P. Misiewicz

 ============================================================================== 
 ============================================================================== 
 ============================================================================== 

	MO spaces per irreps... 

	IRREP   FC   AOCC  BOCC  AVIR    BVIR  FV 
	==========================================
	  A'     0     8     7    38     39     0
	  A"     0     2     1    16     17     0
	==========================================

	Computing MP2 energy using SCF MOs (Canonical MP2)... 
	============================================================================== 
	Nuclear Repulsion Energy (a.u.)    :    32.16947984907899
	SCF Energy (a.u.)                  :  -150.71469825819011
	REF Energy (a.u.)                  :  -150.71469825819011
	Alpha-Alpha Contribution (a.u.)    :    -0.05496037975303
	Alpha-Beta Contribution (a.u.)     :    -0.25867420980756
	Beta-Beta Contribution (a.u.)      :    -0.03481537015845
	Scaled_SS Correlation Energy (a.u.):    -0.02992524997049
	Scaled_OS Correlation Energy (a.u.):    -0.31040905176907
	SCS-MP2 Total Energy (a.u.)        :  -151.05503255992969
	SOS-MP2 Total Energy (a.u.)        :  -151.05097473093994
	SCSN-MP2 Total Energy (a.u.)       :  -150.87270357803430
	SCS-MP2-VDW Total Energy (a.u.)    :  -151.09068912169954
	SOS-PI-MP2 Total Energy (a.u.)     :  -151.07684215192069
	MP2 Correlation Energy (a.u.)      :    -0.34844995971904
	MP2 Total Energy (a.u.)            :  -151.06314821790914
	============================================================================== 

	Analytic gradient computation is starting...
	Computing response density matrices...
	Computing off-diagonal blocks of GFM...
	Forming independent-pairs...
	Number of alpha independent-pairs:336
	Number of beta independent-pairs :290
	Computing orbital gradient...
	Computing diagonal blocks of GFM...
	Solving orbital Z-vector equations...
	Forming relaxed response density matrices...
	Forming relaxed GFM...
	Writing particle density matrices and GFM to disk...
	Necessary information has been sent to DERIV, which will take care of the rest.

*** tstop() called on smg13363-ws at Fri Jan  8 10:54:53 2021
Module time:
	user time   =       0.56 seconds =       0.01 minutes
	system time =       0.14 seconds =       0.00 minutes
	total time  =          0 seconds =       0.00 minutes
Total time:
	user time   =       1.47 seconds =       0.02 minutes
	system time =       0.17 seconds =       0.00 minutes
	total time  =          1 seconds =       0.02 minutes
  Cartesian Displacement SALCs
  By SALC:
  Number of SALCs: 8, nirreps: A'
  Project out translations: False
  Project out rotations: False
	irrep = 0, ncomponent = 1
		0: atom 0, direction x, coef 1.000000
	irrep = 0, ncomponent = 1
		0: atom 0, direction y, coef 1.000000
	irrep = 0, ncomponent = 1
		0: atom 1, direction x, coef 1.000000
	irrep = 0, ncomponent = 1
		0: atom 1, direction y, coef 1.000000
	irrep = 0, ncomponent = 1
		0: atom 2, direction x, coef 1.000000
	irrep = 0, ncomponent = 1
		0: atom 2, direction y, coef 1.000000
	irrep = 0, ncomponent = 1
		0: atom 3, direction x, coef 1.000000
	irrep = 0, ncomponent = 1
		0: atom 3, direction y, coef 1.000000

  By Atomic Center:
  Number of atomic centers: 4
   Atomic Center 0:
	x component, size = 1
		0: salc 0, irrep 0, coef 1.000000
	y component, size = 1
		0: salc 1, irrep 0, coef 1.000000
	z component, size = 0
   Atomic Center 1:
	x component, size = 1
		0: salc 2, irrep 0, coef 1.000000
	y component, size = 1
		0: salc 3, irrep 0, coef 1.000000
	z component, size = 0
   Atomic Center 2:
	x component, size = 1
		0: salc 4, irrep 0, coef 1.000000
	y component, size = 1
		0: salc 5, irrep 0, coef 1.000000
	z component, size = 0
   Atomic Center 3:
	x component, size = 1
		0: salc 6, irrep 0, coef 1.000000
	y component, size = 1
		0: salc 7, irrep 0, coef 1.000000
	z component, size = 0

    Molecular point group: cs
    Full point group: Cs

    Geometry (in Bohr), charge = 0, multiplicity = 3:

       Center              X                  Y                   Z       
    ------------   -----------------  -----------------  -----------------
         O            0.016798818442     1.708992727293     0.000000000000
         O            0.016798818442    -1.709628020746     0.000000000000
         H           -2.061528404512     1.748291553069     0.000000000000
         H            1.528309526045    -1.738208984947     0.000000000000

	Presorting MO-basis TPDMs.
	Sorting File: MO TPDM (AA|AA) nbuckets = 1
	Sorting File: MO TPDM (AA|aa) nbuckets = 1
	Sorting File: MO TPDM (aa|aa) nbuckets = 1
	Starting first half-transformation.
	Sorting half-transformed TPDMs.
	First half integral transformation complete.


  -Nuclear Repulsion Energy 1st Derivatives:
     Atom            X                  Y                   Z
    ------   -----------------  -----------------  -----------------
       1       -1.624348726913    -5.958313458100     0.000000000000
       2        3.246535216437     5.831276044989     0.000000000000
       3        2.132938439914    -0.484089821284     0.000000000000
       4       -3.755124929437     0.611127234395     0.000000000000


  -Core Hamiltonian Gradient:
     Atom            X                  Y                   Z
    ------   -----------------  -----------------  -----------------
       1        5.244191437106    10.300021124862     0.000000000000
       2       -7.892279454212   -10.054389843921     0.000000000000
       3       -6.052975329297     0.934523301984     0.000000000000
       4        8.701063346403    -1.180154582927     0.000000000000


  -Lagrangian contribution to gradient:
     Atom            X                  Y                   Z
    ------   -----------------  -----------------  -----------------
       1       -0.369131825939     0.012487966855     0.000000000000
       2        0.511931061588    -0.006106578512     0.000000000000
       3        0.356132165001    -0.006804237361     0.000000000000
       4       -0.498931400650     0.000422849019     0.000000000000


  -Two-electron contribution to gradient:
     Atom            X                  Y                   Z
    ------   -----------------  -----------------  -----------------
       1       -3.171847308005    -4.403082533291     0.000000000000
       2        4.448091860505     4.270409140228     0.000000000000
       3        3.484480696485    -0.441482436232     0.000000000000
       4       -4.760725248985     0.574155829295     0.000000000000


  -Total gradient:
     Atom            X                  Y                   Z
    ------   -----------------  -----------------  -----------------
       1        0.078863576249    -0.048886899674     0.000000000000
       2        0.314278684318     0.041188762783     0.000000000000
       3       -0.079424027897     0.002146807107     0.000000000000
       4       -0.313718232670     0.005551329783     0.000000000000


			-----------------------------------------
			 OPTKING 2.0: for geometry optimizations 
			  - R.A. King,  Bethel University        
			-----------------------------------------

	Internal coordinates to be generated automatically.
	Detected frag 1 with atoms:  1 3
	Detected frag 2 with atoms:  2 4
	Unifying fragments since fragment_mode == SINGLE
	Connecting fragments 1 and 2
	---Fragment 1 Bond Connectivity---
	 1 : 2 3
	 2 : 1 4
	 3 : 1
	 4 : 2

	---Fragment 1 Geometry and Gradient---
	 O           0.0167988184        1.7089927273        0.0000000000
	 O           0.0167988184       -1.7096280207        0.0000000000
	 H          -2.0615284045        1.7482915531        0.0000000000
	 H           1.5283095260       -1.7382089849        0.0000000000
	             0.0788635762       -0.0488868997        0.0000000000
	             0.3142786843        0.0411887628        0.0000000000
	            -0.0794240279        0.0021468071        0.0000000000
	            -0.3137182327        0.0055513298        0.0000000000

	Previous optimization step data not found.  Starting new optimization.

	---Fragment 1 Intrafragment Coordinates---
	 - Coordinate -           - BOHR/RAD -       - ANG/DEG -
	 R(1,2)           =         3.418621	       1.809056
	 R(1,3)           =         2.078699	       1.100000
	 R(2,4)           =         1.511781	       0.800000
	 B(1,2,4)         =         1.589703	      91.083270
	 B(2,1,3)         =         1.589703	      91.083270
	 D(3,1,2,4)       =         3.141593	     180.000000

	Current energy   :      -151.0631482179

	Generating empirical Hessian (Schlegel '84) for each fragment.
	Taking RFO optimization step.
	Going to follow RFO solution 1.
	Using RFO vector 1.
	Norm of target step-size    0.36977
	Projected energy change by RFO approximation:        -0.0754019796

	Back-transformation to cartesian coordinates...
	Successfully converged to displaced geometry.

	--- Internal Coordinate Step in ANG or DEG, aJ/ANG or AJ/DEG ---
	 ---------------------------------------------------------------------------
	   Coordinate                Previous        Force       Change         New 
	   ----------                --------       ------       ------       ------
	    1 R(1,2)          =      1.809056     0.385079     0.102714     1.911770
	    2 R(1,3)          =      1.100000    -0.654570    -0.095298     1.004702
	    3 R(2,4)          =      0.800000     2.585040     0.136557     0.936557
	    4 B(1,2,4)        =     91.083270    -0.000044    -0.124726    90.958543
	    5 B(2,1,3)        =     91.083270    -0.000102    -0.290534    90.792736
	    6 D(3,1,2,4)      =    180.000000     0.000000     0.000000   180.000000
	 ---------------------------------------------------------------------------
	Successfully symmetrized geometry.

  ==> Convergence Check <==

  Measures of convergence in internal coordinates in au.
  Criteria marked as inactive (o), active & met (*), and active & unmet ( ).
  --------------------------------------------------------------------------------------------- ~
   Step     Total Energy     Delta E     MAX Force     RMS Force      MAX Disp      RMS Disp    ~
  --------------------------------------------------------------------------------------------- ~
    Convergence Criteria    1.00e-06 *    3.00e-04 *             o    1.20e-03 *             o  ~
  --------------------------------------------------------------------------------------------- ~
      1    -151.06314822   -1.51e+02      3.14e-01      1.34e-01 o    2.58e-01      1.51e-01 o  ~
  ---------------------------------------------------------------------------------------------

	Writing optimization data to binary file.
	Structure for next step:
	Cartesian Geometry (in Angstrom)
	    O    -0.0584818842   0.9576981812   0.0000000000
	    O    -0.0396326530  -0.9539788910   0.0000000000
	    H    -1.0631762100   0.9616929905   0.0000000000
	    H     0.8969025731  -0.9604129983   0.0000000000
			--------------------------
			 OPTKING Finished Execution 
			--------------------------

    Structure for next step:
    Molecular point group: cs
    Full point group: Cs

    Geometry (in Angstrom), charge = 0, multiplicity = 3:

    O       
    O             1          r1
    H             1          r2      2          a1
    H             2          r3      1          a2      3          d1

    a1        =   90.7927360068
    a2        =   90.9585434974
    d1        = -180.0000000000
    r1        =    1.9117700045
    r2        =    1.0047022717
    r3        =    0.9365573311


Scratch directory: /tmp/
gradient() will perform analytic gradient computation.

*** tstart() called on smg13363-ws
*** at Fri Jan  8 10:54:54 2021

   => Loading Basis Set <=

    Name: AUG-CC-PVDZ
    Role: ORBITAL
    Keyword: BASIS
    atoms 1-2 entry O          line   254 file /home/smg13363/psi4/objdir/stage/share/psi4/basis/aug-cc-pvdz.gbs 
    atoms 3-4 entry H          line    40 file /home/smg13363/psi4/objdir/stage/share/psi4/basis/aug-cc-pvdz.gbs 


         ---------------------------------------------------------
                                   SCF
               by Justin Turney, Rob Parrish, Andy Simmonett
                          and Daniel G. A. Smith
                              UHF Reference
                        1 Threads,    500 MiB Core
         ---------------------------------------------------------

  ==> Geometry <==

    Molecular point group: cs
    Full point group: Cs

    Geometry (in Angstrom), charge = 0, multiplicity = 3:

       Center              X                  Y                   Z               Mass       
    ------------   -----------------  -----------------  -----------------  -----------------
         O            0.002020655147     0.955937375834     0.000000000000    15.994914619570
         O            0.002020655147    -0.955832628712     0.000000000000    15.994914619570
         H           -1.002585452556     0.969837845688     0.000000000000     1.007825032230
         H            0.938446925487    -0.971500258528     0.000000000000     1.007825032230

  Running in cs symmetry.

  Rotational constants: A =      9.48171  B =      0.53942  C =      0.51038 [cm^-1]
  Rotational constants: A = 284254.52521  B =  16171.29795  C =  15300.83057 [MHz]
  Nuclear repulsion =   30.566427683288918

  Charge       = 0
  Multiplicity = 3
  Electrons    = 18
  Nalpha       = 10
  Nbeta        = 8

  ==> Algorithm <==

  SCF Algorithm Type is PK.
  DIIS enabled.
  MOM disabled.
  Fractional occupation disabled.
  Guess Type is READ.
  Energy threshold   = 1.00e-10
  Density threshold  = 1.00e-10
  Integral threshold = 0.00e+00

  ==> Primary Basis <==

  Basis Set: AUG-CC-PVDZ
    Blend: AUG-CC-PVDZ
    Number of shells: 28
    Number of basis function: 64
    Number of Cartesian functions: 68
    Spherical Harmonics?: true
    Max angular momentum: 2

   => Loading Basis Set <=

    Name: AUG-CC-PVDZ
    Role: ORBITAL
    Keyword: BASIS
    atoms 1-2 entry O          line   254 file /home/smg13363/psi4/objdir/stage/share/psi4/basis/aug-cc-pvdz.gbs 
    atoms 3-4 entry H          line    40 file /home/smg13363/psi4/objdir/stage/share/psi4/basis/aug-cc-pvdz.gbs 

  Reading orbitals from file 180, no projection.

  ==> Integral Setup <==

  Using in-core PK algorithm.
   Calculation information:
      Number of atoms:                   4
      Number of AO shells:              28
      Number of primitives:             64
      Number of atomic orbitals:        68
      Number of basis functions:        64

      Integral cutoff                 1.00e-12
      Number of threads:                 1

  Performing in-core PK
  Using 4328480 doubles for integral storage.
  We computed 82620 shell quartets total.
  Whereas there are 82621 unique shell quartets.

  ==> DiskJK: Disk-Based J/K Matrices <==

    J tasked:                  Yes
    K tasked:                  Yes
    wK tasked:                  No
    Memory [MiB]:              375
    Schwarz Cutoff:          1E-12

    OpenMP threads:              1

  Minimum eigenvalue in the overlap matrix is 1.8705728336E-03.
  Reciprocal condition number of the overlap matrix is 3.0609571360E-04.
    Using symmetric orthogonalization.

  ==> Pre-Iterations <==

  SCF Guess: Orbitals guess was supplied from a previous computation.

   -------------------------------------------------------
    Irrep   Nso     Nmo     Nalpha   Nbeta   Ndocc  Nsocc
   -------------------------------------------------------
     A'        46      46       8       7       7       1
     A"        18      18       2       1       1       1
   -------------------------------------------------------
    Total      64      64      10       8       8       2
   -------------------------------------------------------

  ==> Iterations <==

                        Total Energy        Delta E     RMS |[F,P]|

   @UHF iter   0:  -150.74385531836742   -1.50744e+02   1.11406e-02 
   @UHF iter   1:  -150.77385701808632   -3.00017e-02   1.39644e-03 DIIS
   @UHF iter   2:  -150.77632015544583   -2.46314e-03   5.69099e-04 DIIS
   @UHF iter   3:  -150.77670928079519   -3.89125e-04   2.04466e-04 DIIS
   @UHF iter   4:  -150.77685849097523   -1.49210e-04   1.32919e-04 DIIS
   @UHF iter   5:  -150.77695294377457   -9.44528e-05   5.93535e-05 DIIS
   @UHF iter   6:  -150.77697717089268   -2.42271e-05   2.01081e-05 DIIS
   @UHF iter   7:  -150.77697912822529   -1.95733e-06   1.08384e-05 DIIS
   @UHF iter   8:  -150.77697982849213   -7.00267e-07   4.92325e-06 DIIS
   @UHF iter   9:  -150.77698000802300   -1.79531e-07   1.48123e-06 DIIS
   @UHF iter  10:  -150.77698002172016   -1.36972e-08   4.55983e-07 DIIS
   @UHF iter  11:  -150.77698002278180   -1.06164e-09   1.93779e-07 DIIS
   @UHF iter  12:  -150.77698002299320   -2.11401e-10   7.81590e-08 DIIS
   @UHF iter  13:  -150.77698002303015   -3.69482e-11   2.39212e-08 DIIS
   @UHF iter  14:  -150.77698002303285   -2.70006e-12   7.74998e-09 DIIS
   @UHF iter  15:  -150.77698002303308   -2.27374e-13   1.77321e-09 DIIS
   @UHF iter  16:  -150.77698002303299    8.52651e-14   7.31756e-10 DIIS
   @UHF iter  17:  -150.77698002303308   -8.52651e-14   1.85758e-10 DIIS
   @UHF iter  18:  -150.77698002303293    1.42109e-13   7.93201e-11 DIIS
  Energy and wave function converged.


  ==> Post-Iterations <==

   @Spin Contamination Metric:   2.133962069E-02
   @S^2 Expected:                2.000000000E+00
   @S^2 Observed:                2.021339621E+00
   @S   Expected:                1.000000000E+00
   @S   Observed:                1.000000000E+00

    Orbital Energies [Eh]
    ---------------------

    Alpha Occupied:                                                       

       1Ap   -20.667086     2Ap   -20.609497     3Ap    -1.434748  
       4Ap    -1.351799     5Ap    -0.709389     6Ap    -0.701047  
       1App   -0.678737     7Ap    -0.643445     2App   -0.530228  
       8Ap    -0.505233  

    Alpha Virtual:                                                        

       9Ap     0.038336    10Ap     0.053841    11Ap     0.153498  
       3App    0.185139    12Ap     0.196496    13Ap     0.209786  
      14Ap     0.223909     4App    0.236583    15Ap     0.237773  
      16Ap     0.320499    17Ap     0.336882     5App    0.360999  
      18Ap     0.418580    19Ap     0.428430     6App    0.456984  
      20Ap     0.552473    21Ap     0.619816    22Ap     0.663001  
      23Ap     0.855841     7App    0.883226    24Ap     0.905432  
      25Ap     1.036745     8App    1.072655    26Ap     1.092827  
       9App    1.141458    27Ap     1.173426    10App    1.215558  
      28Ap     1.275757    29Ap     1.301712    11App    1.347004  
      30Ap     1.465122    31Ap     1.493589    12App    1.535087  
      32Ap     1.622543    33Ap     1.844771    13App    2.015980  
      34Ap     2.046713    14App    2.101561    35Ap     2.223860  
      36Ap     2.365017    37Ap     2.531758    38Ap     2.735457  
      39Ap     2.876160    40Ap     3.003265    15App    3.545371  
      41Ap     3.558684    16App    3.573329    17App    3.608567  
      42Ap     3.669783    18App    3.688336    43Ap     3.711666  
      44Ap     3.754776    45Ap     4.090316    46Ap     4.233310  

    Beta Occupied:                                                        

       1Ap   -20.616798     2Ap   -20.565881     3Ap    -1.268701  
       4Ap    -1.185170     5Ap    -0.657644     6Ap    -0.608899  
       7Ap    -0.501200     1App   -0.476020  

    Beta Virtual:                                                         

       8Ap     0.040091     9Ap     0.051507     2App    0.066776  
      10Ap     0.125263    11Ap     0.179159    12Ap     0.203512  
      13Ap     0.220747     3App    0.222207    14Ap     0.234609  
       4App    0.269161    15Ap     0.274706    16Ap     0.328580  
      17Ap     0.341826     5App    0.372381    18Ap     0.426216  
      19Ap     0.434959     6App    0.467060    20Ap     0.568584  
      21Ap     0.638687    22Ap     0.677896    23Ap     0.871362  
      24Ap     0.911842     7App    0.920377    25Ap     1.056600  
       8App    1.106780    26Ap     1.130877     9App    1.153592  
      27Ap     1.230012    10App    1.281092    28Ap     1.300840  
      29Ap     1.321186    11App    1.449993    30Ap     1.482026  
      31Ap     1.600303    12App    1.607098    32Ap     1.677524  
      33Ap     1.868458    13App    2.021712    34Ap     2.067785  
      14App    2.099306    35Ap     2.233513    36Ap     2.389954  
      37Ap     2.557827    38Ap     2.754387    39Ap     2.891344  
      40Ap     3.053254    15App    3.654078    41Ap     3.665639  
      16App    3.675056    17App    3.706177    18App    3.714276  
      42Ap     3.721842    43Ap     3.788298    44Ap     3.849255  
      45Ap     4.127640    46Ap     4.274219  

    Final Occupation by Irrep:
             Ap   App 
    DOCC [     7,    1 ]
    SOCC [     1,    1 ]

  @UHF Final Energy:  -150.77698002303293

   => Energetics <=

    Nuclear Repulsion Energy =             30.5664276832889179
    One-Electron Energy =                -268.9752928331215571
    Two-Electron Energy =                  87.6318851267997019
    Total Energy =                       -150.7769800230329338

  UHF NO Occupations:
  HONO-2 :    7 Ap 1.9967005
  HONO-1 :    8 Ap 1.0000000
  HONO-0 :    2App 1.0000000
  LUNO+0 :    9 Ap 0.0032995
  LUNO+1 :   10 Ap 0.0020604
  LUNO+2 :   11 Ap 0.0018273
  LUNO+3 :    3App 0.0015982


Computation Completed


Properties will be evaluated at   0.000000,   0.000000,   0.000000 [a0]

Properties computed using the SCF density matrix

  Nuclear Dipole Moment: [e a0]
     X:    -0.0601      Y:    -0.0016      Z:     0.0000

  Electronic Dipole Moment: [e a0]
     X:    -0.0104      Y:     0.2380      Z:     0.0000

  Dipole Moment: [e a0]
     X:    -0.0705      Y:     0.2365      Z:     0.0000     Total:     0.2468

  Dipole Moment: [D]
     X:    -0.1793      Y:     0.6010      Z:     0.0000     Total:     0.6272


*** tstop() called on smg13363-ws at Fri Jan  8 10:54:55 2021
Module time:
	user time   =       0.54 seconds =       0.01 minutes
	system time =       0.01 seconds =       0.00 minutes
	total time  =          1 seconds =       0.02 minutes
Total time:
	user time   =       3.01 seconds =       0.05 minutes
	system time =       0.27 seconds =       0.00 minutes
	total time  =          3 seconds =       0.05 minutes
 MINTS: Wrapper to libmints.
   by Justin Turney

   Calculation information:
      Number of threads:                 1
      Number of atoms:                   4
      Number of AO shells:              28
      Number of SO shells:              28
      Number of primitives:             64
      Number of atomic orbitals:        68
      Number of basis functions:        64

      Number of irreps:                  2
      Integral cutoff                 0.00e+00
      Number of functions per irrep: [  46   18 ]

 OEINTS: Overlap, kinetic, potential, dipole, and quadrupole integrals
         stored in file 35.

      Computing two-electron integrals...done
      Computed 1099553 non-zero two-electron integrals.
        Stored in file 33.


*** tstart() called on smg13363-ws
*** at Fri Jan  8 10:54:55 2021



  Module OCC Options:
  ----------------------------------------------------------------------------
  ACTIVE                        => (empty)          
  BASIS_RELATIVISTIC            => (empty)          
  BENCH                         => (empty)          
  CACHELEVEL                    => (empty)          
  CCL_ENERGY                    => (empty)          
  CC_DIIS_MAX_VECS              => (empty)          
  CC_DIIS_MIN_VECS              => (empty)          
  CC_MAXITER                    => (empty)          
  CC_TYPE                       => (empty)          
  CEPA_OS_SCALE                 => (empty)          
  CEPA_SOS_SCALE                => (empty)          
  CEPA_SS_SCALE                 => (empty)          
  CEPA_TYPE                     => (empty)          
  CI_TYPE                       => (empty)          
  CUBEPROP_BASIS_FUNCTIONS      => (empty)          
  CUBEPROP_FILEPATH             => (empty)          
  CUBEPROP_ISOCONTOUR_THRESHOLD => (empty)          
  CUBEPROP_ORBITALS             => (empty)          
  CUBEPROP_TASKS                => (empty)          
  CUBIC_BASIS_TOLERANCE         => (empty)          
  CUBIC_BLOCK_MAX_POINTS        => (empty)          
  CUBIC_GRID_OVERAGE            => (empty)          
  CUBIC_GRID_SPACING            => (empty)          
  CUTOFF                        => (empty)          
  DEBUG                         => (empty)          
  DERTYPE                       => FIRST           !
  DF_BASIS_CC                   => (empty)          
  DIE_IF_NOT_CONVERGED          => (empty)          
  DIIS_MAX_VECS                 => (empty)          
  DIIS_MIN_VECS                 => (empty)          
  DKH_ORDER                     => (empty)          
  DOCC                          => (empty)          
  DO_DIIS                       => (empty)          
  DO_LEVEL_SHIFT                => (empty)          
  DO_SCS                        => (empty)          
  DO_SOS                        => (empty)          
  E3_SCALE                      => (empty)          
  EA_POLES                      => (empty)          
  EKT_EA                        => (empty)          
  EKT_IP                        => (empty)          
  EP_EA_POLES                   => (empty)          
  EP_IP_POLES                   => (empty)          
  EP_MAXITER                    => (empty)          
  EXTERNAL_POTENTIAL_SYMMETRY   => (empty)          
  E_CONVERGENCE                 => 1e-10           !
  FREEZE_CORE                   => (empty)          
  FROZEN_DOCC                   => (empty)          
  FROZEN_UOCC                   => (empty)          
  INTEGRAL_PACKAGE              => (empty)          
  IP_POLES                      => (empty)          
  LEVEL_SHIFT                   => (empty)          
  LINEQ_SOLVER                  => (empty)          
  LITERAL_CFOUR                 => (empty)          
  MAT_NUM_COLUMN_PRINT          => (empty)          
  MAX_MOGRAD_CONVERGENCE        => (empty)          
  MOGRAD_DAMPING                => (empty)          
  MOLDEN_WITH_VIRTUAL           => (empty)          
  MO_DIIS_NUM_VECS              => (empty)          
  MO_MAXITER                    => (empty)          
  MO_READ                       => (empty)          
  MO_STEP_MAX                   => (empty)          
  MO_WRITE                      => (empty)          
  MP2_OS_SCALE                  => (empty)          
  MP2_SOS_SCALE                 => (empty)          
  MP2_SOS_SCALE2                => (empty)          
  MP2_SS_SCALE                  => (empty)          
  MP2_TYPE                      => CONV            !
  MP_TYPE                       => (empty)          
  NAT_ORBS                      => (empty)          
  NUM_FROZEN_DOCC               => (empty)          
  NUM_FROZEN_UOCC               => (empty)          
  NUM_GPUS                      => (empty)          
  OCC_ORBS_PRINT                => (empty)          
  OEPROP                        => (empty)          
  OPT_METHOD                    => (empty)          
  ORB_OPT                       => FALSE           !
  ORB_RESP_SOLVER               => (empty)          
  ORTH_TYPE                     => (empty)          
  OS_SCALE                      => (empty)          
  PARENT_SYMMETRY               => (empty)          
  PCG_BETA_TYPE                 => (empty)          
  PCG_CONVERGENCE               => (empty)          
  PCG_MAXITER                   => (empty)          
  PCM                           => (empty)          
  PE                            => (empty)          
  PRINT                         => (empty)          
  PRINT_NOONS                   => (empty)          
  PROPERTIES                    => (empty)          
  PROPERTIES_ORIGIN             => (empty)          
  PUREAM                        => (empty)          
  QC_MODULE                     => (empty)          
  RAS1                          => (empty)          
  RAS2                          => (empty)          
  RAS3                          => (empty)          
  RAS4                          => (empty)          
  RELATIVISTIC                  => (empty)          
  RELAXED                       => (empty)          
  RESTRICTED_DOCC               => (empty)          
  RESTRICTED_UOCC               => (empty)          
  RMS_MOGRAD_CONVERGENCE        => (empty)          
  R_CONVERGENCE                 => (empty)          
  SCF_TYPE                      => PK              !
  SCS_TYPE                      => (empty)          
  SOCC                          => (empty)          
  SOS_TYPE                      => (empty)          
  SPIN_SCALE_TYPE               => NONE            !
  SS_SCALE                      => (empty)          
  SYMMETRIZE                    => (empty)          
  TPDM_ABCD_TYPE                => (empty)          
  WFN                           => (empty)          
  WFN_TYPE                      => OMP2            !
  WRITER_FILE_LABEL             => (empty)          


 ============================================================================== 
 ============================================================================== 
 ============================================================================== 

                             MP2   
                    Program Written by Ugur Bozkaya,
              Additional Contributions by J. P. Misiewicz

 ============================================================================== 
 ============================================================================== 
 ============================================================================== 

	MO spaces per irreps... 

	IRREP   FC   AOCC  BOCC  AVIR    BVIR  FV 
	==========================================
	  A'     0     8     7    38     39     0
	  A"     0     2     1    16     17     0
	==========================================

	Computing MP2 energy using SCF MOs (Canonical MP2)... 
	============================================================================== 
	Nuclear Repulsion Energy (a.u.)    :    30.56642768328892
	SCF Energy (a.u.)                  :  -150.77698002303293
	REF Energy (a.u.)                  :  -150.77698002303293
	Alpha-Alpha Contribution (a.u.)    :    -0.05510547497145
	Alpha-Beta Contribution (a.u.)     :    -0.25652934662212
	Beta-Beta Contribution (a.u.)      :    -0.03234099722755
	Scaled_SS Correlation Energy (a.u.):    -0.02914882406634
	Scaled_OS Correlation Energy (a.u.):    -0.30783521594654
	SCS-MP2 Total Energy (a.u.)        :  -151.11396406304581
	SOS-MP2 Total Energy (a.u.)        :  -151.08481523897947
	SCSN-MP2 Total Energy (a.u.)       :  -150.93088581410319
	SCS-MP2-VDW Total Energy (a.u.)    :  -151.14906082280876
	SOS-PI-MP2 Total Energy (a.u.)     :  -151.13612110830388
	MP2 Correlation Energy (a.u.)      :    -0.34397581882112
	MP2 Total Energy (a.u.)            :  -151.12095584185406
	============================================================================== 

	Analytic gradient computation is starting...
	Computing response density matrices...
	Computing off-diagonal blocks of GFM...
	Forming independent-pairs...
	Number of alpha independent-pairs:336
	Number of beta independent-pairs :290
	Computing orbital gradient...
	Computing diagonal blocks of GFM...
	Solving orbital Z-vector equations...
	Forming relaxed response density matrices...
	Forming relaxed GFM...
	Writing particle density matrices and GFM to disk...
	Necessary information has been sent to DERIV, which will take care of the rest.

*** tstop() called on smg13363-ws at Fri Jan  8 10:54:56 2021
Module time:
	user time   =       0.54 seconds =       0.01 minutes
	system time =       0.12 seconds =       0.00 minutes
	total time  =          1 seconds =       0.02 minutes
Total time:
	user time   =       3.71 seconds =       0.06 minutes
	system time =       0.40 seconds =       0.01 minutes
	total time  =          4 seconds =       0.07 minutes
  Cartesian Displacement SALCs
  By SALC:
  Number of SALCs: 8, nirreps: A'
  Project out translations: False
  Project out rotations: False
	irrep = 0, ncomponent = 1
		0: atom 0, direction x, coef 1.000000
	irrep = 0, ncomponent = 1
		0: atom 0, direction y, coef 1.000000
	irrep = 0, ncomponent = 1
		0: atom 1, direction x, coef 1.000000
	irrep = 0, ncomponent = 1
		0: atom 1, direction y, coef 1.000000
	irrep = 0, ncomponent = 1
		0: atom 2, direction x, coef 1.000000
	irrep = 0, ncomponent = 1
		0: atom 2, direction y, coef 1.000000
	irrep = 0, ncomponent = 1
		0: atom 3, direction x, coef 1.000000
	irrep = 0, ncomponent = 1
		0: atom 3, direction y, coef 1.000000

  By Atomic Center:
  Number of atomic centers: 4
   Atomic Center 0:
	x component, size = 1
		0: salc 0, irrep 0, coef 1.000000
	y component, size = 1
		0: salc 1, irrep 0, coef 1.000000
	z component, size = 0
   Atomic Center 1:
	x component, size = 1
		0: salc 2, irrep 0, coef 1.000000
	y component, size = 1
		0: salc 3, irrep 0, coef 1.000000
	z component, size = 0
   Atomic Center 2:
	x component, size = 1
		0: salc 4, irrep 0, coef 1.000000
	y component, size = 1
		0: salc 5, irrep 0, coef 1.000000
	z component, size = 0
   Atomic Center 3:
	x component, size = 1
		0: salc 6, irrep 0, coef 1.000000
	y component, size = 1
		0: salc 7, irrep 0, coef 1.000000
	z component, size = 0

    Molecular point group: cs
    Full point group: Cs

    Geometry (in Bohr), charge = 0, multiplicity = 3:

       Center              X                  Y                   Z       
    ------------   -----------------  -----------------  -----------------
         O            0.003818484822     1.806459833415     0.000000000000
         O            0.003818484822    -1.806261890042     0.000000000000
         H           -1.894611922699     1.832727914454     0.000000000000
         H            1.773407672448    -1.835869419430     0.000000000000

	Presorting MO-basis TPDMs.
	Sorting File: MO TPDM (AA|AA) nbuckets = 1
	Sorting File: MO TPDM (AA|aa) nbuckets = 1
	Sorting File: MO TPDM (aa|aa) nbuckets = 1
	Starting first half-transformation.
	Sorting half-transformed TPDMs.
	First half integral transformation complete.


  -Nuclear Repulsion Energy 1st Derivatives:
     Atom            X                  Y                   Z
    ------   -----------------  -----------------  -----------------
       1       -2.005900699045    -5.311664943816     0.000000000000
       2        2.334009415583     5.281859400625     0.000000000000
       3        2.465015464900    -0.478012455496     0.000000000000
       4       -2.793124181439     0.507817998687     0.000000000000


  -Core Hamiltonian Gradient:
     Atom            X                  Y                   Z
    ------   -----------------  -----------------  -----------------
       1        5.982851858971     9.320758601902     0.000000000000
       2       -6.597447673588    -9.301212519228     0.000000000000
       3       -6.752916687730     1.010066756844     0.000000000000
       4        7.367512502347    -1.029612839519     0.000000000000


  -Lagrangian contribution to gradient:
     Atom            X                  Y                   Z
    ------   -----------------  -----------------  -----------------
       1       -0.422497008734     0.023012785250     0.000000000000
       2        0.441281936279    -0.016556534154     0.000000000000
       3        0.416704876881    -0.012138255298     0.000000000000
       4       -0.435489804427     0.005682004202     0.000000000000


  -Two-electron contribution to gradient:
     Atom            X                  Y                   Z
    ------   -----------------  -----------------  -----------------
       1       -3.530014462273    -4.067945893049     0.000000000000
       2        3.860730678136     4.070674497739     0.000000000000
       3        3.845719788397    -0.518496927461     0.000000000000
       4       -4.176436004260     0.515768322771     0.000000000000


  -Total gradient:
     Atom            X                  Y                   Z
    ------   -----------------  -----------------  -----------------
       1        0.024439688920    -0.035839449713     0.000000000000
       2        0.038574356411     0.034764844983     0.000000000000
       3       -0.025476557552     0.001419118589     0.000000000000
       4       -0.037537487779    -0.000344513859     0.000000000000


			-----------------------------------------
			 OPTKING 2.0: for geometry optimizations 
			  - R.A. King,  Bethel University        
			-----------------------------------------

	Previous internal coordinate definitions found.
	---Fragment 1 Geometry and Gradient---
	 O           0.0038184848        1.8064598334        0.0000000000
	 O           0.0038184848       -1.8062618900        0.0000000000
	 H          -1.8946119227        1.8327279145        0.0000000000
	 H           1.7734076724       -1.8358694194        0.0000000000
	             0.0244396889       -0.0358394497        0.0000000000
	             0.0385743564        0.0347648450        0.0000000000
	            -0.0254765576        0.0014191186        0.0000000000
	            -0.0375374878       -0.0003445139        0.0000000000

	---Fragment 1 Intrafragment Coordinates---
	 - Coordinate -           - BOHR/RAD -       - ANG/DEG -
	 R(1,2)           =         3.612722	       1.911770
	 R(1,3)           =         1.898612	       1.004702
	 R(2,4)           =         1.769837	       0.936557
	 B(1,2,4)         =         1.587526	      90.958543
	 B(2,1,3)         =         1.584632	      90.792736
	 D(3,1,2,4)       =         3.141593	     180.000000

	Current energy   :      -151.1209558419

	Energy change for the previous step:
		Projected    :        -0.0754019796
		Actual       :        -0.0578076239
	Energy ratio indicates good step: Trust radius increased to 1.000e+00.


	Performing BFGS update.
	Previous computed or guess Hessian on step 1.
	Steps to be used in Hessian update: 1
	Taking RFO optimization step.
	Going to follow RFO solution 1.
	Using RFO vector 1.
	Norm of target step-size    0.27694
	Projected energy change by RFO approximation:        -0.0223950049

	Back-transformation to cartesian coordinates...
	Successfully converged to displaced geometry.

	--- Internal Coordinate Step in ANG or DEG, aJ/ANG or AJ/DEG ---
	 ---------------------------------------------------------------------------
	   Coordinate                Previous        Force       Change         New 
	   ----------                --------       ------       ------       ------
	    1 R(1,2)          =      1.911770     0.283580     0.137368     2.049138
	    2 R(1,3)          =      1.004702    -0.210036    -0.044221     0.960482
	    3 R(2,4)          =      0.936557     0.309170     0.023566     0.960123
	    4 B(1,2,4)        =     90.958543    -0.000131    -0.693447    90.265096
	    5 B(2,1,3)        =     90.792736    -0.000154    -0.799700    89.993036
	    6 D(3,1,2,4)      =    180.000000     0.000000     0.000000   180.000000
	 ---------------------------------------------------------------------------
	Successfully symmetrized geometry.

  ==> Convergence Check <==

  Measures of convergence in internal coordinates in au.
  Criteria marked as inactive (o), active & met (*), and active & unmet ( ).
  ---------------------------------------------------------------------------------------------
   Step     Total Energy     Delta E     MAX Force     RMS Force      MAX Disp      RMS Disp   
  ---------------------------------------------------------------------------------------------
    Convergence Criteria    1.00e-06 *    3.00e-04 *             o    1.20e-03 *             o
  ---------------------------------------------------------------------------------------------
      2    -151.12095584   -5.78e-02      3.75e-02      2.33e-02 o    2.60e-01      1.13e-01 o  ~
  ---------------------------------------------------------------------------------------------

	Writing optimization data to binary file.
	Structure for next step:
	Cartesian Geometry (in Angstrom)
	    O    -0.0375781844   1.0250714743   0.0000000000
	    O     0.0076637017  -1.0235672769   0.0000000000
	    H    -0.9978231507   1.0037487690   0.0000000000
	    H     0.9676404168  -1.0068106321   0.0000000000
			--------------------------
			 OPTKING Finished Execution 
			--------------------------

    Structure for next step:
    Molecular point group: cs
    Full point group: Cs

    Geometry (in Angstrom), charge = 0, multiplicity = 3:

    O       
    O             1          r1
    H             1          r2      2          a1
    H             2          r3      1          a2      3          d1

    a1        =   89.9930357802
    a2        =   90.2650960362
    d1        = -180.0000000000
    r1        =    2.0491382565
    r2        =    0.9604816814
    r3        =    0.9601229535


Scratch directory: /tmp/
gradient() will perform analytic gradient computation.

*** tstart() called on smg13363-ws
*** at Fri Jan  8 10:54:57 2021

   => Loading Basis Set <=

    Name: AUG-CC-PVDZ
    Role: ORBITAL
    Keyword: BASIS
    atoms 1-2 entry O          line   254 file /home/smg13363/psi4/objdir/stage/share/psi4/basis/aug-cc-pvdz.gbs 
    atoms 3-4 entry H          line    40 file /home/smg13363/psi4/objdir/stage/share/psi4/basis/aug-cc-pvdz.gbs 


         ---------------------------------------------------------
                                   SCF
               by Justin Turney, Rob Parrish, Andy Simmonett
                          and Daniel G. A. Smith
                              UHF Reference
                        1 Threads,    500 MiB Core
         ---------------------------------------------------------

  ==> Geometry <==

    Molecular point group: cs
    Full point group: Cs

    Geometry (in Angstrom), charge = 0, multiplicity = 3:

       Center              X                  Y                   Z               Mass       
    ------------   -----------------  -----------------  -----------------  -----------------
         O            0.000010936033     1.024704244672     0.000000000000    15.994914619570
         O            0.000010936033    -1.024434011784     0.000000000000    15.994914619570
         H           -0.960470738294     1.024587499502     0.000000000000     1.007825032230
         H            0.960123612742    -1.028876291534     0.000000000000     1.007825032230

  Running in cs symmetry.

  Rotational constants: A =      9.67449  B =      0.47059  C =      0.44876 [cm^-1]
  Rotational constants: A = 290033.80827  B =  14107.97609  C =  13453.56094 [MHz]
  Nuclear repulsion =   29.270853596430612

  Charge       = 0
  Multiplicity = 3
  Electrons    = 18
  Nalpha       = 10
  Nbeta        = 8

  ==> Algorithm <==

  SCF Algorithm Type is PK.
  DIIS enabled.
  MOM disabled.
  Fractional occupation disabled.
  Guess Type is READ.
  Energy threshold   = 1.00e-10
  Density threshold  = 1.00e-10
  Integral threshold = 0.00e+00

  ==> Primary Basis <==

  Basis Set: AUG-CC-PVDZ
    Blend: AUG-CC-PVDZ
    Number of shells: 28
    Number of basis function: 64
    Number of Cartesian functions: 68
    Spherical Harmonics?: true
    Max angular momentum: 2

   => Loading Basis Set <=

    Name: AUG-CC-PVDZ
    Role: ORBITAL
    Keyword: BASIS
    atoms 1-2 entry O          line   254 file /home/smg13363/psi4/objdir/stage/share/psi4/basis/aug-cc-pvdz.gbs 
    atoms 3-4 entry H          line    40 file /home/smg13363/psi4/objdir/stage/share/psi4/basis/aug-cc-pvdz.gbs 

  Reading orbitals from file 180, no projection.

  ==> Integral Setup <==

  Using in-core PK algorithm.
   Calculation information:
      Number of atoms:                   4
      Number of AO shells:              28
      Number of primitives:             64
      Number of atomic orbitals:        68
      Number of basis functions:        64

      Integral cutoff                 1.00e-12
      Number of threads:                 1

  Performing in-core PK
  Using 4328480 doubles for integral storage.
  We computed 82620 shell quartets total.
  Whereas there are 82621 unique shell quartets.

  ==> DiskJK: Disk-Based J/K Matrices <==

    J tasked:                  Yes
    K tasked:                  Yes
    wK tasked:                  No
    Memory [MiB]:              375
    Schwarz Cutoff:          1E-12

    OpenMP threads:              1

  Minimum eigenvalue in the overlap matrix is 1.9944274189E-03.
  Reciprocal condition number of the overlap matrix is 3.3322037920E-04.
    Using symmetric orthogonalization.

  ==> Pre-Iterations <==

  SCF Guess: Orbitals guess was supplied from a previous computation.

   -------------------------------------------------------
    Irrep   Nso     Nmo     Nalpha   Nbeta   Ndocc  Nsocc
   -------------------------------------------------------
     A'        46      46       8       7       7       1
     A"        18      18       2       1       1       1
   -------------------------------------------------------
    Total      64      64      10       8       8       2
   -------------------------------------------------------

  ==> Iterations <==

                        Total Energy        Delta E     RMS |[F,P]|

   @UHF iter   0:  -150.83012659422675   -1.50830e+02   4.31935e-03 
   @UHF iter   1:  -150.79116459927738    3.89620e-02   7.20189e-04 DIIS
   @UHF iter   2:  -150.79191664435166   -7.52045e-04   3.39685e-04 DIIS
   @UHF iter   3:  -150.79207098811037   -1.54344e-04   1.32447e-04 DIIS
   @UHF iter   4:  -150.79215010611546   -7.91180e-05   6.43003e-05 DIIS
   @UHF iter   5:  -150.79217246855742   -2.23624e-05   2.22965e-05 DIIS
   @UHF iter   6:  -150.79217514339990   -2.67484e-06   1.00125e-05 DIIS
   @UHF iter   7:  -150.79217585674962   -7.13350e-07   4.86253e-06 DIIS
   @UHF iter   8:  -150.79217602933895   -1.72589e-07   2.47265e-06 DIIS
   @UHF iter   9:  -150.79217607042054   -4.10816e-08   9.26977e-07 DIIS
   @UHF iter  10:  -150.79217607566861   -5.24807e-09   3.41368e-07 DIIS
   @UHF iter  11:  -150.79217607630235   -6.33747e-10   1.22442e-07 DIIS
   @UHF iter  12:  -150.79217607638063   -7.82734e-11   4.00815e-08 DIIS
   @UHF iter  13:  -150.79217607638853   -7.90124e-12   1.15508e-08 DIIS
   @UHF iter  14:  -150.79217607638884   -3.12639e-13   3.01004e-09 DIIS
   @UHF iter  15:  -150.79217607638918   -3.41061e-13   9.68368e-10 DIIS
   @UHF iter  16:  -150.79217607638913    5.68434e-14   4.18932e-10 DIIS
   @UHF iter  17:  -150.79217607638935   -2.27374e-13   1.36609e-10 DIIS
   @UHF iter  18:  -150.79217607638907    2.84217e-13   5.31235e-11 DIIS
  Energy and wave function converged.


  ==> Post-Iterations <==

   @Spin Contamination Metric:   1.814987137E-02
   @S^2 Expected:                2.000000000E+00
   @S^2 Observed:                2.018149871E+00
   @S   Expected:                1.000000000E+00
   @S   Observed:                1.000000000E+00

    Orbital Energies [Eh]
    ---------------------

    Alpha Occupied:                                                       

       1Ap   -20.657422     2Ap   -20.621084     3Ap    -1.425226  
       4Ap    -1.360888     5Ap    -0.708169     6Ap    -0.685965  
       1App   -0.670926     7Ap    -0.651091     2App   -0.536993  
       8Ap    -0.526044  

    Alpha Virtual:                                                        

       9Ap     0.039210    10Ap     0.053406    11Ap     0.155388  
       3App    0.184336    12Ap     0.198779    13Ap     0.213334  
      14Ap     0.223465     4App    0.235222    15Ap     0.237143  
      16Ap     0.324856    17Ap     0.331282     5App    0.365171  
      18Ap     0.410313    19Ap     0.425740     6App    0.451426  
      20Ap     0.549742    21Ap     0.636029    22Ap     0.653881  
      23Ap     0.861998     7App    0.864981    24Ap     0.886599  
      25Ap     1.034677    26Ap     1.073657     8App    1.079460  
       9App    1.134212    27Ap     1.174242    10App    1.207314  
      28Ap     1.247073    29Ap     1.304845    11App    1.343515  
      30Ap     1.420035    31Ap     1.453836    12App    1.492214  
      32Ap     1.631891    33Ap     1.802933    34Ap     2.002172  
      13App    2.037008    14App    2.077089    35Ap     2.227826  
      36Ap     2.420701    37Ap     2.540740    38Ap     2.736271  
      39Ap     2.793043    40Ap     2.869751    15App    3.520186  
      41Ap     3.574930    16App    3.586338    17App    3.616916  
      18App    3.677522    42Ap     3.677561    43Ap     3.701072  
      44Ap     3.749158    45Ap     4.155216    46Ap     4.176243  

    Beta Occupied:                                                        

       1Ap   -20.610709     2Ap   -20.578063     3Ap    -1.261057  
       4Ap    -1.198249     5Ap    -0.657424     6Ap    -0.614457  
       7Ap    -0.505707     1App   -0.484094  

    Beta Virtual:                                                         

       8Ap     0.040849     9Ap     0.050817     2App    0.066328  
      10Ap     0.118592    11Ap     0.174737    12Ap     0.203376  
       3App    0.221368    13Ap     0.223661    14Ap     0.236740  
       4App    0.268359    15Ap     0.270463    16Ap     0.330301  
      17Ap     0.338553     5App    0.376660    18Ap     0.420126  
      19Ap     0.430481     6App    0.463567    20Ap     0.566483  
      21Ap     0.656006    22Ap     0.669175    23Ap     0.878030  
      24Ap     0.894596     7App    0.902472    25Ap     1.057924  
      26Ap     1.112289     8App    1.117392     9App    1.144295  
      27Ap     1.229106    10App    1.261888    28Ap     1.271427  
      29Ap     1.322974    11App    1.443858    30Ap     1.469988  
      31Ap     1.532108    12App    1.574735    32Ap     1.674430  
      33Ap     1.824945    34Ap     2.026931    13App    2.045124  
      14App    2.074511    35Ap     2.234879    36Ap     2.445852  
      37Ap     2.573021    38Ap     2.753972    39Ap     2.841568  
      40Ap     2.886879    15App    3.625657    41Ap     3.669603  
      16App    3.684304    17App    3.699785    18App    3.718203  
      42Ap     3.736482    43Ap     3.774765    44Ap     3.840862  
      45Ap     4.188010    46Ap     4.219607  

    Final Occupation by Irrep:
             Ap   App 
    DOCC [     7,    1 ]
    SOCC [     1,    1 ]

  @UHF Final Energy:  -150.79217607638907

   => Energetics <=

    Nuclear Repulsion Energy =             29.2708535964306122
    One-Electron Energy =                -266.3724918872588319
    Two-Electron Energy =                  86.3094622144391650
    Total Energy =                       -150.7921760763890688

  UHF NO Occupations:
  HONO-2 :    7 Ap 1.9973523
  HONO-1 :    8 Ap 1.0000000
  HONO-0 :    2App 1.0000000
  LUNO+0 :    9 Ap 0.0026477
  LUNO+1 :   10 Ap 0.0019442
  LUNO+2 :   11 Ap 0.0016436
  LUNO+3 :    3App 0.0011579


Computation Completed


Properties will be evaluated at   0.000000,   0.000000,   0.000000 [a0]

Properties computed using the SCF density matrix

  Nuclear Dipole Moment: [e a0]
     X:    -0.0003      Y:    -0.0040      Z:     0.0000

  Electronic Dipole Moment: [e a0]
     X:    -0.0311      Y:     0.1567      Z:     0.0000

  Dipole Moment: [e a0]
     X:    -0.0314      Y:     0.1527      Z:     0.0000     Total:     0.1559

  Dipole Moment: [D]
     X:    -0.0798      Y:     0.3881      Z:     0.0000     Total:     0.3962


*** tstop() called on smg13363-ws at Fri Jan  8 10:54:58 2021
Module time:
	user time   =       0.54 seconds =       0.01 minutes
	system time =       0.01 seconds =       0.00 minutes
	total time  =          1 seconds =       0.02 minutes
Total time:
	user time   =       5.22 seconds =       0.09 minutes
	system time =       0.54 seconds =       0.01 minutes
	total time  =          6 seconds =       0.10 minutes
 MINTS: Wrapper to libmints.
   by Justin Turney

   Calculation information:
      Number of threads:                 1
      Number of atoms:                   4
      Number of AO shells:              28
      Number of SO shells:              28
      Number of primitives:             64
      Number of atomic orbitals:        68
      Number of basis functions:        64

      Number of irreps:                  2
      Integral cutoff                 0.00e+00
      Number of functions per irrep: [  46   18 ]

 OEINTS: Overlap, kinetic, potential, dipole, and quadrupole integrals
         stored in file 35.

      Computing two-electron integrals...done
      Computed 1090244 non-zero two-electron integrals.
        Stored in file 33.


*** tstart() called on smg13363-ws
*** at Fri Jan  8 10:54:58 2021



  Module OCC Options:
  ----------------------------------------------------------------------------
  ACTIVE                        => (empty)          
  BASIS_RELATIVISTIC            => (empty)          
  BENCH                         => (empty)          
  CACHELEVEL                    => (empty)          
  CCL_ENERGY                    => (empty)          
  CC_DIIS_MAX_VECS              => (empty)          
  CC_DIIS_MIN_VECS              => (empty)          
  CC_MAXITER                    => (empty)          
  CC_TYPE                       => (empty)          
  CEPA_OS_SCALE                 => (empty)          
  CEPA_SOS_SCALE                => (empty)          
  CEPA_SS_SCALE                 => (empty)          
  CEPA_TYPE                     => (empty)          
  CI_TYPE                       => (empty)          
  CUBEPROP_BASIS_FUNCTIONS      => (empty)          
  CUBEPROP_FILEPATH             => (empty)          
  CUBEPROP_ISOCONTOUR_THRESHOLD => (empty)          
  CUBEPROP_ORBITALS             => (empty)          
  CUBEPROP_TASKS                => (empty)          
  CUBIC_BASIS_TOLERANCE         => (empty)          
  CUBIC_BLOCK_MAX_POINTS        => (empty)          
  CUBIC_GRID_OVERAGE            => (empty)          
  CUBIC_GRID_SPACING            => (empty)          
  CUTOFF                        => (empty)          
  DEBUG                         => (empty)          
  DERTYPE                       => FIRST           !
  DF_BASIS_CC                   => (empty)          
  DIE_IF_NOT_CONVERGED          => (empty)          
  DIIS_MAX_VECS                 => (empty)          
  DIIS_MIN_VECS                 => (empty)          
  DKH_ORDER                     => (empty)          
  DOCC                          => (empty)          
  DO_DIIS                       => (empty)          
  DO_LEVEL_SHIFT                => (empty)          
  DO_SCS                        => (empty)          
  DO_SOS                        => (empty)          
  E3_SCALE                      => (empty)          
  EA_POLES                      => (empty)          
  EKT_EA                        => (empty)          
  EKT_IP                        => (empty)          
  EP_EA_POLES                   => (empty)          
  EP_IP_POLES                   => (empty)          
  EP_MAXITER                    => (empty)          
  EXTERNAL_POTENTIAL_SYMMETRY   => (empty)          
  E_CONVERGENCE                 => 1e-10           !
  FREEZE_CORE                   => (empty)          
  FROZEN_DOCC                   => (empty)          
  FROZEN_UOCC                   => (empty)          
  INTEGRAL_PACKAGE              => (empty)          
  IP_POLES                      => (empty)          
  LEVEL_SHIFT                   => (empty)          
  LINEQ_SOLVER                  => (empty)          
  LITERAL_CFOUR                 => (empty)          
  MAT_NUM_COLUMN_PRINT          => (empty)          
  MAX_MOGRAD_CONVERGENCE        => (empty)          
  MOGRAD_DAMPING                => (empty)          
  MOLDEN_WITH_VIRTUAL           => (empty)          
  MO_DIIS_NUM_VECS              => (empty)          
  MO_MAXITER                    => (empty)          
  MO_READ                       => (empty)          
  MO_STEP_MAX                   => (empty)          
  MO_WRITE                      => (empty)          
  MP2_OS_SCALE                  => (empty)          
  MP2_SOS_SCALE                 => (empty)          
  MP2_SOS_SCALE2                => (empty)          
  MP2_SS_SCALE                  => (empty)          
  MP2_TYPE                      => CONV            !
  MP_TYPE                       => (empty)          
  NAT_ORBS                      => (empty)          
  NUM_FROZEN_DOCC               => (empty)          
  NUM_FROZEN_UOCC               => (empty)          
  NUM_GPUS                      => (empty)          
  OCC_ORBS_PRINT                => (empty)          
  OEPROP                        => (empty)          
  OPT_METHOD                    => (empty)          
  ORB_OPT                       => FALSE           !
  ORB_RESP_SOLVER               => (empty)          
  ORTH_TYPE                     => (empty)          
  OS_SCALE                      => (empty)          
  PARENT_SYMMETRY               => (empty)          
  PCG_BETA_TYPE                 => (empty)          
  PCG_CONVERGENCE               => (empty)          
  PCG_MAXITER                   => (empty)          
  PCM                           => (empty)          
  PE                            => (empty)          
  PRINT                         => (empty)          
  PRINT_NOONS                   => (empty)          
  PROPERTIES                    => (empty)          
  PROPERTIES_ORIGIN             => (empty)          
  PUREAM                        => (empty)          
  QC_MODULE                     => (empty)          
  RAS1                          => (empty)          
  RAS2                          => (empty)          
  RAS3                          => (empty)          
  RAS4                          => (empty)          
  RELATIVISTIC                  => (empty)          
  RELAXED                       => (empty)          
  RESTRICTED_DOCC               => (empty)          
  RESTRICTED_UOCC               => (empty)          
  RMS_MOGRAD_CONVERGENCE        => (empty)          
  R_CONVERGENCE                 => (empty)          
  SCF_TYPE                      => PK              !
  SCS_TYPE                      => (empty)          
  SOCC                          => (empty)          
  SOS_TYPE                      => (empty)          
  SPIN_SCALE_TYPE               => NONE            !
  SS_SCALE                      => (empty)          
  SYMMETRIZE                    => (empty)          
  TPDM_ABCD_TYPE                => (empty)          
  WFN                           => (empty)          
  WFN_TYPE                      => OMP2            !
  WRITER_FILE_LABEL             => (empty)          


 ============================================================================== 
 ============================================================================== 
 ============================================================================== 

                             MP2   
                    Program Written by Ugur Bozkaya,
              Additional Contributions by J. P. Misiewicz

 ============================================================================== 
 ============================================================================== 
 ============================================================================== 

	MO spaces per irreps... 

	IRREP   FC   AOCC  BOCC  AVIR    BVIR  FV 
	==========================================
	  A'     0     8     7    38     39     0
[...]
                    Program Written by Ugur Bozkaya,
              Additional Contributions by J. P. Misiewicz

 ============================================================================== 
 ============================================================================== 
 ============================================================================== 

	MO spaces per irreps... 

	IRREP   FC   AOCC  BOCC  AVIR    BVIR  FV 
	==========================================
	  A'     0     8     7    38     39     0
	  A"     0     2     1    16     17     0
	==========================================

	Computing MP2 energy using SCF MOs (Canonical MP2)... 
	============================================================================== 
	Nuclear Repulsion Energy (a.u.)    :    24.06351873208016
	SCF Energy (a.u.)                  :  -150.81012254580961
	REF Energy (a.u.)                  :  -150.81012254580961
	Alpha-Alpha Contribution (a.u.)    :    -0.05475027502929
	Alpha-Beta Contribution (a.u.)     :    -0.24857689939292
	Beta-Beta Contribution (a.u.)      :    -0.02672088751972
	Scaled_SS Correlation Energy (a.u.):    -0.02715705418300
	Scaled_OS Correlation Energy (a.u.):    -0.29829227927151
	SCS-MP2 Total Energy (a.u.)        :  -151.13557187926412
	SOS-MP2 Total Energy (a.u.)        :  -151.10841482508113
	SCSN-MP2 Total Energy (a.u.)       :  -150.95351179189586
	SCS-MP2-VDW Total Energy (a.u.)    :  -151.16903655830706
	SOS-PI-MP2 Total Energy (a.u.)     :  -151.15813020495969
	MP2 Correlation Energy (a.u.)      :    -0.33004806194193
	MP2 Total Energy (a.u.)            :  -151.14017060775154
	============================================================================== 

	Analytic gradient computation is starting...
	Computing response density matrices...
	Computing off-diagonal blocks of GFM...
	Forming independent-pairs...
	Number of alpha independent-pairs:336
	Number of beta independent-pairs :290
	Computing orbital gradient...
	Computing diagonal blocks of GFM...
	Solving orbital Z-vector equations...
	Forming relaxed response density matrices...
	Forming relaxed GFM...
	Writing particle density matrices and GFM to disk...
	Necessary information has been sent to DERIV, which will take care of the rest.

*** tstop() called on smg13363-ws at Fri Jan  8 10:56:58 2021
Module time:
	user time   =       0.53 seconds =       0.01 minutes
	system time =       0.12 seconds =       0.00 minutes
	total time  =          1 seconds =       0.02 minutes
Total time:
	user time   =     109.01 seconds =       1.82 minutes
	system time =      12.96 seconds =       0.22 minutes
	total time  =        126 seconds =       2.10 minutes
  Cartesian Displacement SALCs
  By SALC:
  Number of SALCs: 8, nirreps: A'
  Project out translations: False
  Project out rotations: False
	irrep = 0, ncomponent = 1
		0: atom 0, direction x, coef 1.000000
	irrep = 0, ncomponent = 1
		0: atom 0, direction y, coef 1.000000
	irrep = 0, ncomponent = 1
		0: atom 1, direction x, coef 1.000000
	irrep = 0, ncomponent = 1
		0: atom 1, direction y, coef 1.000000
	irrep = 0, ncomponent = 1
		0: atom 2, direction x, coef 1.000000
	irrep = 0, ncomponent = 1
		0: atom 2, direction y, coef 1.000000
	irrep = 0, ncomponent = 1
		0: atom 3, direction x, coef 1.000000
	irrep = 0, ncomponent = 1
		0: atom 3, direction y, coef 1.000000

  By Atomic Center:
  Number of atomic centers: 4
   Atomic Center 0:
	x component, size = 1
		0: salc 0, irrep 0, coef 1.000000
	y component, size = 1
		0: salc 1, irrep 0, coef 1.000000
	z component, size = 0
   Atomic Center 1:
	x component, size = 1
		0: salc 2, irrep 0, coef 1.000000
	y component, size = 1
		0: salc 3, irrep 0, coef 1.000000
	z component, size = 0
   Atomic Center 2:
	x component, size = 1
		0: salc 4, irrep 0, coef 1.000000
	y component, size = 1
		0: salc 5, irrep 0, coef 1.000000
	z component, size = 0
   Atomic Center 3:
	x component, size = 1
		0: salc 6, irrep 0, coef 1.000000
	y component, size = 1
		0: salc 7, irrep 0, coef 1.000000
	z component, size = 0

    Molecular point group: cs
    Full point group: Cs

    Geometry (in Bohr), charge = 0, multiplicity = 3:

       Center              X                  Y                   Z       
    ------------   -----------------  -----------------  -----------------
         O            0.016018277203     2.681415113308     0.000000000000
         O            0.016018277203    -2.738328813314     0.000000000000
         H           -1.788353996023     2.299948080577     0.000000000000
         H            1.279910629337    -1.396686360369     0.000000000000

	Presorting MO-basis TPDMs.
	Sorting File: MO TPDM (AA|AA) nbuckets = 1
	Sorting File: MO TPDM (AA|aa) nbuckets = 1
	Sorting File: MO TPDM (aa|aa) nbuckets = 1
	Starting first half-transformation.
	Sorting half-transformed TPDMs.
	First half integral transformation complete.


  -Nuclear Repulsion Energy 1st Derivatives:
     Atom            X                  Y                   Z
    ------   -----------------  -----------------  -----------------
       1       -2.171272998229    -3.084532871050     0.000000000000
       2        1.520456350422     4.155761864929     0.000000000000
       3        2.423046710200     0.190187098886     0.000000000000
       4       -1.772230062392    -1.261416092766     0.000000000000


  -Core Hamiltonian Gradient:
     Atom            X                  Y                   Z
    ------   -----------------  -----------------  -----------------
       1        6.061665197857     6.349580784220     0.000000000000
       2       -4.254097113879    -9.532821326854     0.000000000000
       3       -6.472947504246    -0.607212157141     0.000000000000
       4        4.665379420269     3.790452699779     0.000000000000


  -Lagrangian contribution to gradient:
     Atom            X                  Y                   Z
    ------   -----------------  -----------------  -----------------
       1       -0.424673163270    -0.080084249249     0.000000000000
       2        0.287131091283     0.298439003805     0.000000000000
       3        0.425633011187     0.071098282097     0.000000000000
       4       -0.288090939199    -0.289453036653     0.000000000000


  -Two-electron contribution to gradient:
     Atom            X                  Y                   Z
    ------   -----------------  -----------------  -----------------
       1       -3.465877141044    -3.185231486704     0.000000000000
       2        2.446169432154     5.079637623700     0.000000000000
       3        3.624338635705     0.345594106292     0.000000000000
       4       -2.604630926814    -2.240000243288     0.000000000000


  -Total gradient:
     Atom            X                  Y                   Z
    ------   -----------------  -----------------  -----------------
       1       -0.000158104687    -0.000267822783     0.000000000000
       2       -0.000340240022     0.001017165580     0.000000000000
       3        0.000070852845    -0.000332669866     0.000000000000
       4        0.000427491864    -0.000416672927     0.000000000000


			-----------------------------------------
			 OPTKING 2.0: for geometry optimizations 
			  - R.A. King,  Bethel University        
			-----------------------------------------

	Previous internal coordinate definitions found.
	---Fragment 1 Geometry and Gradient---
	 O           0.0160182772        2.6814151133        0.0000000000
	 O           0.0160182772       -2.7383288133        0.0000000000
	 H          -1.7883539960        2.2999480806        0.0000000000
	 H           1.2799106293       -1.3966863604        0.0000000000
	            -0.0001581047       -0.0002678228        0.0000000000
	            -0.0003402400        0.0010171656        0.0000000000
	             0.0000708528       -0.0003326699        0.0000000000
	             0.0004274919       -0.0004166729        0.0000000000

	---Fragment 1 Intrafragment Coordinates---
	 - Coordinate -           - BOHR/RAD -       - ANG/DEG -
	 R(1,2)           =         5.419744	       2.868005
	 R(1,3)           =         1.844255	       0.975938
	 R(2,4)           =         1.843211	       0.975385
	 B(1,2,4)         =         0.755567	      43.290780
	 B(2,1,3)         =         1.362452	      78.062725
	 D(3,1,2,4)       =         3.141593	     180.000000

	Current energy   :      -151.1401706078

	Energy change for the previous step:
		Projected    :         0.0000042353
		Actual       :        -0.0000122219

	Performing BFGS update.
	Previous computed or guess Hessian on step 1.
	Steps to be used in Hessian update: 49 48
	Taking RFO optimization step.
	Going to follow RFO solution 1.
	Using RFO vector 1.

	Determining step-restricting scale parameter for RS-RFO.
	Maximum step size allowed    0.00879

	 Iter      |step|        alpha        rfo_root  
	------------------------------------------------
	    0     2.33415       1.00000           1
	    1     1.24355       2.17902           1
	    2     0.67811       4.98445           1
	    3     0.37776      12.04992           1
	    4     0.21429      30.66126           1
	    5     0.12353      80.94105           1
	    6     0.07241     216.98115           1
	    7     0.04338     575.16872           1
	    8     0.02685    1457.47673           1
	    9     0.01751    3370.74975           1
	   10     0.01238    6673.97745           1
	   11     0.00985   10504.11640           1
	   12     0.00893   12742.22698           1
	   13     0.00879   13151.40206           1
	------------------------------------------------
	Norm of target step-size    0.00879
	Projected energy change by RFO approximation:         0.0000039764

	Back-transformation to cartesian coordinates...
	Successfully converged to displaced geometry.

	--- Internal Coordinate Step in ANG or DEG, aJ/ANG or AJ/DEG ---
	 ---------------------------------------------------------------------------
	   Coordinate                Previous        Force       Change         New 
	   ----------                --------       ------       ------       ------
	    1 R(1,2)          =      2.868005     0.004947     0.001987     2.869992
	    2 R(1,3)          =      0.975938     0.000004     0.000001     0.975939
	    3 R(2,4)          =      0.975385     0.000084     0.000031     0.975417
	    4 B(1,2,4)        =     43.290780    -0.000084    -0.395734    42.895047
	    5 B(2,1,3)        =     78.062725     0.000048     0.225595    78.288320
	    6 D(3,1,2,4)      =    180.000000     0.000000     0.000000   180.000000
	 ---------------------------------------------------------------------------
	Successfully symmetrized geometry.

  ==> Convergence Check <==

  Measures of convergence in internal coordinates in au.
  Criteria marked as inactive (o), active & met (*), and active & unmet ( ).
  ---------------------------------------------------------------------------------------------
   Step     Total Energy     Delta E     MAX Force     RMS Force      MAX Disp      RMS Disp   
  ---------------------------------------------------------------------------------------------
    Convergence Criteria    1.00e-06 *    3.00e-04 *             o    1.20e-03 *             o
  ---------------------------------------------------------------------------------------------
     50    -151.14017061   -1.22e-05      1.10e-03      5.72e-04 o    6.91e-03      3.59e-03 o  ~
  ---------------------------------------------------------------------------------------------


  **** Optimization has failed! (in 50 steps) ****

  ==> Optimization Summary <==

  Measures of convergence in internal coordinates in au.
  --------------------------------------------------------------------------------------------------------------- ~
   Step         Total Energy             Delta E       MAX Force       RMS Force        MAX Disp        RMS Disp  ~
  --------------------------------------------------------------------------------------------------------------- ~
      1    -151.063148217909   -151.063148217909      0.31376711      0.13350963      0.25805596      0.15095789  ~
      2    -151.120955841854     -0.057807623945      0.03752647      0.02327369      0.25958837      0.11305872  ~
      3    -151.129725277985     -0.008769436131      0.02098121      0.01159579      0.27153487      0.11360930  ~
      4    -151.134511532185     -0.004786254200      0.01154390      0.00580530      0.30980220      0.13036779  ~
      5    -151.137319863396     -0.002808331212      0.00614481      0.00367783      0.24894758      0.10676823  ~
      6    -151.138491024404     -0.001171161008      0.00695271      0.00330417      0.24514482      0.10799485  ~
      7    -151.139164838150     -0.000673813745      0.00433356      0.00215681      0.15693662      0.07158034  ~
      8    -151.139431400186     -0.000266562037      0.00187780      0.00123449      0.13991291      0.06642345  ~
      9    -151.139582552003     -0.000151151817      0.00166520      0.00090168      0.09216907      0.04764536  ~
     10    -151.139654778180     -0.000072226177      0.00182166      0.00102724      0.04366718      0.02607851  ~
     11    -151.139706362126     -0.000051583946      0.00154012      0.00085418      0.06120623      0.03004060  ~
     12    -151.139778445443     -0.000072083317      0.00071911      0.00037963      0.06988748      0.03041144  ~
     13    -151.139801718450     -0.000023273008      0.00141379      0.00064584      0.00842735      0.00502716  ~
     14    -151.139806560951     -0.000004842501      0.00079625      0.00041846      0.01891559      0.01073296  ~
     15    -151.139818177520     -0.000011616569      0.00120378      0.00054910      0.02148810      0.01120923  ~
     16    -151.139829881550     -0.000011704030      0.00233980      0.00099161      0.04713524      0.02551552  ~
     17    -151.139869449396     -0.000039567846      0.00241369      0.00103292      0.00974451      0.00637950  ~
     18    -151.139885149793     -0.000015700397      0.00062546      0.00039190      0.00257470      0.00159516  ~
     19    -151.139888266106     -0.000003116313      0.00050313      0.00030042      0.00832798      0.00478419  ~
     20    -151.139896957826     -0.000008691720      0.00053009      0.00030884      0.00208121      0.00119824  ~
     21    -151.139899177320     -0.000002219494      0.00053756      0.00030940      0.00636183      0.00358827  ~
     22    -151.139905905499     -0.000006728179      0.00055795      0.00031624      0.00640577      0.00358814  ~
     23    -151.139912786230     -0.000006880731      0.00057759      0.00032322      0.00647511      0.00358814  ~
     24    -151.139919824703     -0.000007038473      0.00059702      0.00033072      0.00652849      0.00358814  ~
     25    -151.139927028276     -0.000007203573      0.00061611      0.00033854      0.00657079      0.00358814  ~
     26    -151.139934402937     -0.000007374661      0.00063498      0.00034660      0.00660757      0.00358814  ~
     27    -151.139941953751     -0.000007550814      0.00065378      0.00035490      0.00663830      0.00358813  ~
     28    -151.139949685299     -0.000007731548      0.00067253      0.00036339      0.00666445      0.00358813  ~
     29    -151.139957601654     -0.000007916355      0.00069129      0.00037206      0.00668715      0.00358813  ~
     30    -151.139965706473     -0.000008104818      0.00071011      0.00038089      0.00670699      0.00358813  ~
     31    -151.139974003057     -0.000008296584      0.00072899      0.00038987      0.00672457      0.00358813  ~
     32    -151.139982494381     -0.000008491325      0.00074798      0.00039898      0.00674034      0.00358813  ~
     33    -151.139991183129     -0.000008688747      0.00076706      0.00040821      0.00675464      0.00358813  ~
     34    -151.140000071703     -0.000008888574      0.00078626      0.00041755      0.00676774      0.00358813  ~
     35    -151.140009162246     -0.000009090543      0.00080556      0.00042697      0.00677988      0.00358813  ~
     36    -151.140018456648     -0.000009294402      0.00082496      0.00043648      0.00679888      0.00359218  ~
     37    -151.140027967397     -0.000009510748      0.00084449      0.00044607      0.00680913      0.00359195  ~
     38    -151.140037684907     -0.000009717510      0.00086410      0.00045572      0.00681880      0.00359173  ~
     39    -151.140047610320     -0.000009925413      0.00088379      0.00046542      0.00682800      0.00359150  ~
     40    -151.140057744546     -0.000010134227      0.00090354      0.00047516      0.00683676      0.00359129  ~
     41    -151.140068088268     -0.000010343722      0.00092333      0.00048492      0.00684515      0.00359108  ~
     42    -151.140078641936     -0.000010553668      0.00094315      0.00049470      0.00685320      0.00359087  ~
     43    -151.140089405773     -0.000010763837      0.00096298      0.00050448      0.00686093      0.00359067  ~
     44    -151.140100379772     -0.000010973999      0.00098279      0.00051426      0.00686836      0.00359048  ~
     45    -151.140111563698     -0.000011183926      0.00100257      0.00052403      0.00687550      0.00359030  ~
     46    -151.140122957083     -0.000011393385      0.00102230      0.00053376      0.00688235      0.00359013  ~
     47    -151.140134559229     -0.000011602146      0.00104194      0.00054346      0.00688892      0.00358996  ~
     48    -151.140146369205     -0.000011809975      0.00106149      0.00055311      0.00689519      0.00358980  ~
     49    -151.140158385846     -0.000012016641      0.00108091      0.00056270      0.00690118      0.00358965  ~
     50    -151.140170607752     -0.000012221906      0.00110017      0.00057221      0.00690686      0.00358951  ~
  --------------------------------------------------------------------------------------------------------------- ~

	Writing optimization data to binary file.
			--------------------------
			 OPTKING Finished Execution 
			--------------------------

    Structure for next step:
    Molecular point group: cs
    Full point group: Cs

    Geometry (in Angstrom), charge = 0, multiplicity = 3:

    O       
    O             1          r1
    H             1          r2      2          a1
    H             2          r3      1          a2      3          d1

    a1        =   78.2883202066
    a2        =   42.8950467281
    d1        = -180.0000000000
    r1        =    2.8699917858
    r2        =    0.9759390637
    r3        =    0.9754169772

	Cleaning optimization helper files.

PsiException: Could not converge geometry optimization in 50 iterations.


Traceback (most recent call last):
  File "/home/smg13363/psi4/objdir/stage/bin/psi4", line 337, in <module>
    exec(content)
  File "<string>", line 37, in <module>
  File "/home/smg13363/psi4/objdir/stage/lib/psi4/driver/driver.py", line 1419, in optimize
    raise OptimizationConvergenceError("""geometry optimization""", n - 1, wfn)

psi4.driver.p4util.exceptions.OptimizationConvergenceError: Could not converge geometry optimization in 50 iterations.


Printing out the relevant lines from the Psithon --> Python processed input file:
    core.set_global_option("E_CONVERGENCE", 10)
    core.set_global_option("SCF_TYPE", "pk")
    core.set_global_option("REFERENCE", "uhf")
    core.set_global_option("BASIS", "aug-cc-pvdz")
    core.set_global_option("MP2_TYPE", "conv")
--> optimize('mp2')

!-------------------------------------------------------------!
!                                                             !
!  Could not converge geometry optimization in 50 iterations. !
!                                                             !
!-------------------------------------------------------------!

    Psi4 stopped on: Friday, 08 January 2021 10:56AM
    Psi4 wall time for execution: 0:02:07.07

*** Psi4 encountered an error. Buy a developer more coffee!
*** Resources and help at github.com/psi4/psi4.
